/*--------------------------------*- C++ -*----------------------------------*\
| =========                 |                                                 |
| \\      /  F ield         | OpenFOAM: The Open Source CFD Toolbox           |
|  \\    /   O peration     | Version:  v2012                                 |
|   \\  /    A nd           | Website:  www.openfoam.com                      |
|    \\/     M anipulation  |                                                 |
\*---------------------------------------------------------------------------*/
FoamFile
{
    version     2.0;
    format      ascii;
    class       volScalarField;
    location    "0.08";
    object      ddt0(rho,e);
}
// * * * * * * * * * * * * * * * * * * * * * * * * * * * * * * * * * * * * * //

dimensions      [1 -1 -3 0 0 0 0];


internalField   nonuniform List<scalar> 
18000
(
-199.525
-1287.5
-1874.61
-2691.36
-3134.38
-3424.81
-3555.01
-3326.74
-2757.5
-1863.4
-681.948
646.734
2000.29
3290.97
4457.08
5453.39
6269.58
6893.57
7332.9
7492.34
7555.45
7416.86
7027.53
6398.98
5561.93
4557.22
3429.26
2220.17
973.368
-272.034
-1475.05
-2584.56
-3555.03
-4337.08
-4910.82
-5260.36
-5400.28
-5345.84
-5117.69
-4753.5
-4282.67
-3715.99
-3083.16
-2404.63
-1713.45
-1035.7
-396.052
184.856
694.032
1121.51
1466.22
1729.46
1917.37
2033.48
2071.66
2032.48
1947.62
1794.92
1577.18
1317.55
1032.59
735.862
435.503
151.711
-106.713
-324.716
-502.243
-632.802
-722.296
-768.432
-780.281
-762.758
-727.019
-678.25
-611.555
-532.704
-454.743
-369.389
-277.03
-176.986
-70.5117
39.6019
143.952
240.452
323.717
392.862
442.905
473.466
485.934
483.774
465.784
433.214
389.018
326.788
257.968
183.388
117.625
56.4629
-6.83695
-77.0731
-143.382
-205.778
-261.383
-310.842
-357.405
-399.959
-444.228
-479.664
-498.065
-494.298
-467.371
-426.934
-384.134
-347.334
-317.4
-284.596
-245.41
-195.197
-136.982
-71.1839
-18.9128
23.0231
53.2089
74.1609
103.006
133.892
173.327
203.314
220.028
225.385
234.196
242.056
257.466
263.164
268.536
278.084
283.319
285.254
280.805
258.65
229.544
199.753
232.04
251.701
229.505
154.194
233.611
156.893
56.7931
14.7854
-159.909
-1257.24
-1823.82
-2555.45
-3015.19
-3283.83
-3372.87
-3125.87
-2558.98
-1696.53
-595.509
638.74
1909.39
3131.65
4241.19
5193.25
5976.95
6573.42
6987.49
7209.98
7222.36
7016.03
6619.47
6020.75
5233.52
4289.17
3225.19
2079.63
892.484
-294.095
-1434.87
-2478.58
-3385.7
-4113.8
-4650
-4979.2
-5115.07
-5070.48
-4872.86
-4523.22
-4070.6
-3526.6
-2922.11
-2277.64
-1621.79
-978.133
-369.622
183.503
669.208
1078.54
1410.69
1665.19
1845.35
1952.45
1987.55
1949.27
1850.07
1690.79
1490.47
1250.95
979.181
693.499
407.456
141.175
-100.304
-304.104
-470.445
-591.824
-674.378
-716.492
-729.109
-711.557
-676.666
-622.696
-565.754
-497.482
-419.329
-340.148
-257.585
-166.787
-69.5258
29.0982
122.339
209.764
287.309
354.485
405.408
437.901
450.362
447.617
427.485
396.581
357.331
308.331
254.458
197.67
140.95
85.8282
21.686
-45.8217
-107.538
-167.158
-222.801
-271.891
-313.476
-342.87
-368.305
-389.434
-407.373
-417.286
-413.361
-397.025
-371.249
-341.474
-308.663
-269.625
-224.257
-171.856
-115.936
-61.0814
-21.1358
11.5794
39.2387
66.2623
101.258
134.236
170.861
196.652
214.178
224.452
235.82
242.763
261.429
262.25
254.601
254.848
263.025
284.186
295.696
308.205
297.461
305.198
399.087
416.547
355.366
255.16
244.694
178.98
97.0132
74.7607
-132.128
-1203.15
-1736.3
-2375.77
-2811.94
-3067.28
-3082.86
-2813.31
-2278.71
-1509.09
-550.604
537.509
1686.16
2821.61
3877.76
4801.12
5565.9
6139.03
6529.81
6784.15
6721.34
6486.76
6101.58
5544.19
4819.4
3950.69
2965.81
1899
789.986
-313.401
-1363.89
-2314.88
-3136.57
-3795.27
-4285.79
-4592.84
-4727.99
-4698.87
-4526.67
-4216.3
-3799.96
-3293.73
-2730.37
-2129.93
-1518.04
-917.345
-349.115
167.689
623.183
1010
1326.71
1570.16
1740.68
1837.9
1869.4
1827.47
1716.23
1566.16
1380.88
1156.57
899.156
631.022
366.598
123.136
-97.9561
-284.309
-435.959
-544.737
-617.701
-654.005
-663.447
-647.549
-613.736
-565.774
-507.044
-447.11
-377.931
-305.36
-229.943
-149.114
-65.0015
20.0062
103.741
182.382
250.821
309.692
356.207
389.998
406.537
407.608
386.533
354.396
314.789
275.477
235.026
196.174
148.661
100.352
38.0359
-15.0667
-61.5932
-109.987
-162.773
-216.368
-265.679
-297.756
-313.061
-315.118
-314.938
-319.158
-325.522
-330.389
-327.003
-312.804
-289.865
-257.094
-215.573
-164.185
-109.023
-59.0122
-22.7078
3.00491
21.0799
39.5128
65.9364
94.9402
128.199
152.279
172.094
188.139
205.18
219.465
239.561
243.699
249.501
259.177
263.792
267.92
258.004
242.553
208.638
178.488
138.976
166.444
232.095
223.116
169.844
127.923
98.2629
77.5702
-61.9531
-1093.69
-1560.86
-2119.46
-2523.1
-2752
-2717.96
-2435.54
-1962.68
-1306.56
-512.347
401.086
1386.64
2393.43
3363.88
4238.74
4977.39
5531.21
5895.2
6101.64
6074.7
5839.14
5452.9
4930.5
4277.74
3503.48
2619.87
1658.96
661.743
-321.427
-1247.52
-2077.85
-2791.23
-3361.66
-3791.95
-4067.37
-4198.49
-4187.92
-4047.28
-3786.05
-3428.46
-2981.09
-2477.34
-1937.58
-1385.97
-844.697
-331.852
136.449
552.669
909.771
1204.65
1431.86
1590
1677.33
1696.66
1665.06
1557.06
1412.83
1234.8
1023.6
789.558
551.2
316.462
99.7575
-97.3486
-261.186
-393.111
-485.522
-546.493
-575.382
-580.954
-565.479
-533.733
-490.775
-436.347
-382.555
-325.495
-260.588
-193.464
-127.438
-61.8508
8.84901
83.7284
154.29
212.715
258.583
293.056
321.369
340.121
347.786
335.13
311.223
280.959
254.238
226.228
197.292
153.523
105.328
50.142
17.325
-14.0637
-54.1384
-106.077
-160.901
-215.499
-258.792
-284.745
-289.362
-279.162
-269.706
-268.419
-275.203
-276.993
-263.728
-242.862
-214.302
-181.821
-143.591
-107.091
-74.363
-41.6313
-9.27551
15.1508
30.1004
45.8643
67.0092
95.3448
116.144
134.621
154.695
176.61
198.087
222.659
230.002
241.222
251.809
256.052
259.596
254.161
238.843
215.397
183.509
97.3439
-111.651
-193.759
-33.9903
34.7063
92.1363
102.812
89.6286
33.3952
-932.613
-1332.9
-1808.39
-2161.04
-2332.04
-2284.28
-2017.57
-1622.15
-1086.14
-461.668
269.54
1073.18
1925.03
2781.06
3580.39
4272.92
4798.1
5140.32
5296.26
5292.97
5087.95
4723.86
4243.23
3664.49
2988.34
2216.86
1382.67
522.964
-316.139
-1099.55
-1796.13
-2390.43
-2862.61
-3222.83
-3457.78
-3578.69
-3585.01
-3481.86
-3274.44
-2985.6
-2612.26
-2181.4
-1714.7
-1234.66
-763.207
-314.462
98.5912
469.549
790.452
1056.69
1262.03
1404.62
1480.8
1495.96
1461.83
1373.85
1238.47
1065.29
869.876
666.017
462.57
259.663
71.0408
-99.8618
-238.361
-348.305
-422.976
-471.026
-491.556
-492.526
-476.156
-446.695
-406.742
-362.801
-312.81
-264.283
-208.469
-154.692
-105.032
-55.6254
1.69411
62.5656
122.737
174.639
214.68
240.214
257.819
267.971
274.088
271.298
260.304
243.862
226.506
206.486
184.973
150.699
109.636
68.7688
44.0822
13.7233
-25.136
-70.1073
-112.769
-160.27
-210.056
-254.502
-279.405
-277.68
-260.73
-242.838
-235.191
-227.11
-210.774
-193.435
-169.221
-141.342
-110.596
-90.7101
-80.8627
-65.2225
-34.7464
-1.46098
21.7879
40.1635
55.7599
76.5562
90.9389
104.42
122.163
141.006
165.782
193.35
206.972
224.326
231.53
231.14
225.852
219.089
197.884
198.533
189.676
195.236
177.516
185.711
170.05
71.4861
50.15
66.2179
36.804
85.848
-740.382
-1071.98
-1468.06
-1761.78
-1872.15
-1813.97
-1579.79
-1260.4
-845.043
-390.445
161.437
782.265
1467.53
2184.42
2875.2
3490.31
3966.42
4283.63
4420.49
4415.14
4258.46
3951.04
3527.3
3019.13
2435.57
1783.13
1092.74
388.027
-293.592
-925.488
-1483.45
-1956.12
-2327.84
-2613.88
-2802.23
-2906.04
-2924.34
-2856.57
-2727.04
-2486.01
-2195.69
-1849.46
-1465.78
-1066.07
-671.622
-292.395
60.6019
380.76
659.01
890.223
1068.41
1191.96
1258.49
1266.13
1233.07
1168.38
1044.73
883.3
711.759
540.796
371.346
200.305
41.8762
-100.458
-212.418
-300.186
-357.348
-392.704
-404.976
-401.392
-384
-356.234
-321.117
-283.118
-238.936
-198.789
-156.719
-119.994
-80.098
-42.0933
-2.298
33.9334
74.4841
117.121
158.885
188.772
205.01
205.877
204.631
205.494
202.7
197.452
184.807
167.352
150.76
130.167
109.156
87.5236
61.1201
23.0363
-13.754
-37.9754
-55.6702
-85.9504
-129.766
-178.367
-218.248
-237.892
-234.533
-214.382
-193.052
-169.493
-149.084
-138.325
-124.597
-107.951
-82.9946
-63.9834
-55.2051
-51.9942
-43.2824
-25.316
2.74375
34.0421
49.7757
63.2666
70.6607
83.2858
102.419
118.237
142.51
165.834
178.495
196.824
201.532
203.457
197.257
199.191
186.93
190.887
195.333
171.827
128.58
147.004
117.566
7.28557
-49.9187
23.4249
6.17083
95.9102
-563.552
-817.168
-1129.82
-1357.5
-1407.97
-1342.76
-1148.48
-897.827
-598.079
-306.111
75.9174
522.555
1038.97
1600.86
2158.99
2672.03
3080.42
3367.24
3499.43
3497.65
3382.93
3147.62
2797.88
2363.36
1872.42
1345.68
807.732
264.697
-254.839
-733.032
-1153.21
-1507.36
-1782.11
-1995.12
-2134.76
-2216.47
-2241.09
-2203.49
-2121.83
-1952.08
-1746.12
-1489.8
-1195.65
-882.086
-568.442
-261.639
27.3423
291.353
521.064
711.808
858.435
960.124
1019.57
1018.33
994.172
941.651
835.582
700.707
559.987
419.784
280.875
141.768
15.9169
-96.162
-181.665
-248.21
-288.937
-312.499
-317.284
-309.804
-292.028
-266.209
-235.445
-203.165
-167.586
-136.217
-111.069
-87.4897
-52.4231
-25.5335
-4.57006
6.00125
22.0754
47.5126
83.3184
118.142
142.439
146.451
144.392
142.605
139.112
140.399
132.591
120.321
104.441
89.4016
83.9317
80.5627
63.1263
28.8803
1.63591
-5.08526
-8.06698
-25.0771
-56.5283
-91.6194
-124.948
-151.808
-164.561
-156.937
-137.843
-112.937
-88.6687
-80.0075
-73.594
-73.7366
-62.4672
-45.4979
-17.5587
-3.38364
-15.042
-30.6711
-18.5451
12.7335
30.4601
44.0346
47.5941
63.0127
89.6474
111.257
138.45
154.224
159.416
173.349
175.904
181.568
172.706
171.523
153.095
156.88
162.311
128.17
75.8154
91.292
120.678
75.968
31.3468
87.7472
12.6879
67.1312
-389.619
-585.447
-821.182
-972.897
-958.358
-891.126
-737.446
-561.836
-381.464
-238.851
-7.53272
283.433
639.346
1043.23
1458.08
1854.29
2180.57
2427.76
2558.25
2571.25
2490.86
2326.73
2061.18
1712.5
1323.05
923.402
533.607
148.977
-209.644
-535.272
-820.291
-1060.23
-1243.14
-1387.11
-1479.46
-1536.98
-1563.09
-1550.55
-1498.1
-1408.91
-1280.24
-1112.34
-910.687
-685.678
-453.459
-219.991
2.11565
205.753
382.319
528.202
640.043
718.34
756.133
766.315
750.929
699.304
619.046
523.033
415.272
302.227
191.882
85.9122
-5.56508
-86.8258
-146.623
-193.099
-218.54
-231.38
-229.678
-219.12
-201.781
-178.632
-155.488
-128.009
-103.808
-82.6337
-70.7666
-53.3109
-33.5133
-17.5987
-4.75919
-3.87157
-4.17002
1.76059
17.294
40.2477
63.007
74.5648
80.3562
76.6156
73.3431
76.4465
74.3408
74.6399
65.2607
55.2206
51.1396
51.4655
43.4972
28.7222
22.2146
17.7711
10.6021
1.84634
-15.9683
-36.0039
-56.5854
-71.074
-81.1419
-79.2264
-69.0978
-57.8127
-39.2816
-32.24
-25.073
-32.3301
-37.4673
-45.5616
-18.0022
10.0281
10.6184
-8.04402
-18.4776
-13.0724
0.865862
24.2634
30.3333
46.4989
77.5642
108.307
140.883
149.594
146.784
154.676
152.821
156.947
146.684
147.026
133.393
147.505
153.525
120.76
73.9946
67.1925
91.2645
70.6661
28.69
98.7162
32.9855
16.6178
-219.87
-375.779
-534.222
-596.471
-550.801
-435.513
-326.807
-251.641
-208.426
-204.765
-106.629
46.5577
255.098
508.921
782.896
1058.69
1296.68
1475.76
1624.09
1654.97
1611.27
1507.82
1325.2
1078.45
803.565
528.209
275.823
40.6327
-163.523
-341.693
-496.051
-626.412
-722.802
-803.128
-852.23
-886.58
-911.574
-918.462
-909.796
-873.201
-814.987
-729.524
-618.257
-480.503
-328.447
-168.258
-14.6392
126.008
246.671
345.259
420.958
474.318
475.428
514.816
504.022
455.09
403.748
347.608
273.185
187.602
106.434
34.0968
-23.2301
-74.4453
-109.722
-137.223
-148.352
-151.424
-144.162
-131.276
-115.066
-95.3056
-79.6312
-59.543
-48.0301
-37.9917
-30.8231
-22.5983
-30.4151
-20.0916
-4.87366
8.51622
7.49574
-1.28404
-11.7103
-12.1479
-6.49753
0.425934
7.84473
4.68829
10.8791
9.84425
13.7726
22.1094
30.2556
42.2577
47.3648
37.7233
18.4127
17.7154
29.3724
20.2849
10.0958
15.6072
16.4476
7.93108
-10.0665
-15.8287
-15.3033
-8.0059
0.854129
2.31981
-4.8103
-9.64708
-4.11219
-3.11943
-7.55521
-39.6294
-43.82
-35.6633
-3.87113
21.6561
10.7469
-16.0194
-13.9222
16.7635
31.5836
47.1263
73.0748
105.238
140.009
142.847
134.916
139.168
136.037
139.158
129.982
132.882
122.473
141.504
140.027
106.861
69.651
52.6529
49.6066
33.0168
11.5609
100.585
34.0216
35.1458
-81.5088
-183.756
-259.64
-210.655
-97.1192
42.8481
99.8275
58.3964
-42.024
-170.903
-203.682
-185.223
-118.156
-5.37122
136.827
298.693
452.96
590.624
723.058
769.592
764.038
705.803
598.598
464.157
313.561
161.436
38.9005
-57.2931
-118.257
-158.828
-189.734
-215.664
-229.962
-251.203
-261.484
-275.345
-298.542
-320.243
-347.883
-358.986
-364.492
-354.029
-326.245
-271.226
-197.168
-109.682
-24.7944
52.3481
116.878
168.676
208.298
235.73
232.921
265.173
252.562
221.04
196.456
171.662
130.206
76.763
27.474
-12.3524
-38.0842
-61.1347
-73.1549
-82.5966
-80.2972
-74.4037
-62.3322
-47.8221
-33.3687
-17.5983
-6.82777
1.7922
2.34213
1.46651
6.78641
-4.8073
-23.9879
-22.4955
-18.0025
10.3736
22.7398
12.1912
-17.8144
-37.8481
-49.5205
-54.4702
-58.2596
-62.2083
-48.2902
-54.4507
-35.7058
-33.0571
-12.5136
15.5398
42.6079
34.6254
18.7472
24.6953
34.0325
20.1248
14.3618
30.6049
48.714
56.7053
45.092
36.0752
37.3039
44.0529
53.803
57.8084
24.6668
3.28706
-6.10384
-1.02692
15.0614
5.69465
-17.5873
-52.3825
-21.046
35.0811
46.4881
16.9696
7.73402
22.3936
40.8394
60.253
79.8527
102.314
131.787
130.345
121.665
123.923
121.252
123.118
113.833
116.223
108.498
132.818
126.843
90.4513
63.8333
44.8019
17.5436
2.12739
5.6684
80.8707
25.6617
84.6656
23.0943
-14.6721
8.02437
173.179
385.125
507.619
501.379
362.288
148.749
-96.0764
-263.462
-387.17
-465.641
-492.069
-474.359
-415.567
-335.086
-219.768
-131.735
-71.4513
-44.9279
-66.9324
-105.038
-130.101
-155.838
-182.807
-177.165
-142.946
-72.8387
12.2807
95.5294
167.373
230.452
264.348
288.928
292.31
270.258
236.722
178.922
137.106
60.2403
4.50464
-42.0185
-63.4287
-64.4613
-48.5612
-31.2485
-15.605
-4.93761
2.63295
6.99639
6.70136
22.4424
20.5381
3.0829
-1.20745
-0.840778
-1.65208
-11.6777
-29.1179
-44.0345
-53.0013
-50.6199
-48.1413
-38.3904
-30.6907
-15.7879
-1.53872
14.8369
30.4003
42.5548
53.8787
58.0778
56.8762
49.7853
38.9031
34.7197
4.62464
7.89352
-19.0192
-49.5573
-42.9254
-18.7346
-11.3081
-35.7699
-63.0419
-82.7645
-89.402
-100.977
-103.908
-103.112
-105.66
-66.1825
-65.5146
-44.649
-39.401
-15.8444
-5.66068
36.3494
67.342
74.9984
68.3099
66.9924
69.752
77.0604
91.3698
95.4724
85.9682
83.2107
80.6122
79.2021
90.2515
74.284
48.7567
16.5623
1.32691
28.5798
72.564
65.512
14.01
-3.22171
7.32027
33.1438
44.0868
44.2234
28.0087
33.5694
61.7005
85.3896
94.5153
114.372
115.11
115.476
117.793
112.866
111.182
101.992
102.714
94.3784
118.307
106.687
66.6089
55.9239
41.8554
-2.67721
-20.1057
4.27466
62.8146
7.95026
120.292
112.667
149.2
268.21
537.621
778.093
868.523
801.348
613.174
342.493
14.0465
-280.63
-546.596
-771.441
-936.283
-1038.1
-1073.13
-1060.88
-1001.93
-936.051
-868.469
-818.952
-797.328
-767.202
-695.716
-605.128
-507.467
-375.147
-218.091
-27.5743
172.037
359.653
521.102
655.622
740.631
796.88
814.88
793.165
749.213
667.738
536.942
453.599
341.076
228.473
137.375
64.7869
11.3256
-35.8816
-78.0524
-117.853
-152.123
-181.891
-213.995
-192.466
-212.911
-228.312
-211.659
-189.702
-167.906
-147.509
-128.861
-109.588
-89.4476
-61.7979
-36.2678
-6.3396
17.5746
44.3915
66.481
86.8979
103.379
113.168
119.966
117.575
108.46
95.0202
74.8281
53.5069
26.2602
44.2147
-20.2276
-82.849
-139.573
-130.323
-106.315
-92.3508
-108.583
-126.817
-128.026
-128.177
-118.16
-141.719
-129.172
-94.5342
-74.2052
-47.0361
-58.4534
-68.7802
-50.2873
37.1022
95.6962
127.742
152.331
167.336
153.277
127.508
120.589
122.466
117.406
114.436
112.262
92.2725
103.576
141.582
123.41
74.8346
24.842
26.8393
84.2907
91.8695
74.0073
17.2123
-51.7153
-36.1129
21.3331
48.6323
21.9322
7.71807
42.5878
76.0386
78.344
90.0581
96.2364
114.249
123.629
116.811
106.892
93.8821
90.9659
80.1168
100.943
84.4452
39.9428
43.675
34.6606
-21.3255
-37.8975
3.71352
46.1201
-11.817
107.507
150.47
278.371
515.64
889.728
1126.13
1135.76
1008.59
791.675
496.003
117.567
-280.778
-672.592
-1032.22
-1327.97
-1544.01
-1668.19
-1724.41
-1724.37
-1678.87
-1618.51
-1554.12
-1477.23
-1377.39
-1221.39
-1026.91
-811.065
-557.52
-285.57
16.0941
320.593
603.749
846.515
1045.72
1177.16
1262
1292.6
1270.8
1216.72
1115.69
930.149
827.098
653.26
480.639
326.679
186.828
67.8619
-39.5641
-136.077
-222.743
-297.076
-359.679
-417.051
-411.403
-436.893
-435.344
-406.072
-368.545
-324.794
-274.733
-221.978
-170.646
-123.449
-72.6918
-26.0975
22.5067
61.8058
99.9454
129.382
153.645
171.213
179.223
182.057
173.704
158.907
137.581
109.383
73.0047
71.6255
39.6464
-30.1267
-101.611
-199.392
-237.428
-231.116
-189.424
-183.273
-187.996
-198.486
-181.52
-152.156
-160.402
-130.727
-141.877
-107.091
-66.4427
-21.4584
-29.8561
-12.4862
14.4678
55.2585
109.317
156.992
191.207
196.306
174.766
156.285
138.308
135.413
131.832
149.131
129.383
114.345
159.024
147.937
110.701
52.0055
10.1198
20.7476
13.7096
46.5941
7.19793
-78.4613
-74.4271
-15.3933
19.6403
8.62841
-12.6837
17.0508
49.826
59.4695
70.168
70.3318
95.093
116.231
117.441
102.558
84.4287
77.0778
64.1298
81.6431
61.2915
12.3682
28.4574
23.0151
-39.6791
-52.8479
0.581225
27.5225
-28.3146
80.5933
176.594
383.373
729.387
1226.14
1477.94
1455.74
1232.85
949.735
610.192
191.917
-285.222
-779.184
-1254.59
-1667.07
-1989.45
-2200.73
-2325.65
-2377.78
-2345.39
-2306.29
-2231.97
-2103.96
-1938.4
-1703.56
-1415.32
-1090.88
-724.577
-346.024
57.4931
457.069
827.327
1144.03
1401.64
1574.66
1684.97
1726.68
1704.87
1641.22
1520.16
1359.37
1180.51
937.909
710.755
501.353
300.599
120.978
-43.406
-190.802
-319.982
-431.677
-525.482
-583.319
-624.528
-650.022
-627.587
-585.515
-534.558
-470.889
-394.124
-310.487
-228.786
-155.511
-82.904
-16.975
48.6663
102.352
151.32
188.006
215.831
234.218
240.934
240.901
227.61
209.164
178
145.135
99.8541
117.735
2.08856
-17.8208
-91.3948
-144.094
-241.308
-276.718
-276.53
-261.222
-255.792
-285.092
-278.246
-252.705
-189.892
-153.49
-198.832
-186.175
-150.144
-44.5389
22.5435
64.6037
0.449475
-4.88722
27.3958
49.7183
69.4917
111.415
146.754
166.17
154.3
157.441
149.869
181.774
197.166
136.968
95.9667
89.5163
105.427
85.1865
21.3844
-27.4002
-52.8659
1.20644
-5.85139
-41.7819
-31.3505
-12.667
1.59307
7.45786
-3.62424
4.99238
20.092
43.3146
59.5021
39.6223
48.7118
75.4732
93.6327
84.461
66.497
56.2802
42.5761
58.8368
37.1841
-13.7496
12.4955
7.79112
-59.9001
-70.5846
-9.12293
5.98586
-36.8906
189.512
280.084
491.995
909.663
1518.38
1790.22
1800.62
1504.33
1133.07
722.319
249.2
-294.792
-871.405
-1444.62
-1957.68
-2374.89
-2669.6
-2861.38
-2943.03
-2939.17
-2926.32
-2839.09
-2673.9
-2453.3
-2144.24
-1769.68
-1346.08
-876.599
-399.252
96.5986
580.506
1028.95
1412.91
1723.84
1934.45
2067.67
2119.52
2097.92
2025.16
1884.94
1699.41
1450.91
1187.4
922.1
661.201
405.39
169.686
-48.5636
-241.668
-408.803
-553.346
-673.144
-724.901
-808.714
-835.307
-807.156
-753.996
-688.009
-605.011
-505.48
-395.655
-285.481
-186.03
-91.6609
-7.61943
73.3989
140.032
199.206
243.349
274.777
293.691
298.874
296.398
279.138
257.485
217.128
183.665
133.419
124.558
-4.73463
42.4703
-23.0171
16.8332
-122.742
-186.371
-279.684
-278.583
-298.822
-307.782
-339.976
-345.576
-251.623
-219.52
-227.914
-230.643
-227.09
-186.424
-58.1042
33.9303
29.429
11.5645
-7.37906
-15.8112
-16.7789
25.3874
89.8789
150.89
174.727
189.027
180.528
181.379
231.001
190.889
70.231
56.4419
122.633
146.482
94.1696
3.55709
-20.4962
13.9681
-1.79969
-1.56604
11.5857
-7.99538
-5.62935
13.0819
22.4601
11.4561
4.57522
25.1631
43.782
11.7787
7.35612
30.5589
58.555
56.3247
41.4603
29.9558
16.201
32.6772
11.453
-39.0284
-3.31242
-10.732
-81.503
-90.0868
-26.308
-19.4171
-41.6774
325.23
435.157
638.337
1079.74
1725.24
1961.04
1979.41
1712.44
1327.72
854.429
311.312
-299.346
-949.319
-1607.38
-2206.19
-2704.29
-3074.41
-3332.6
-3433.24
-3483.4
-3491.26
-3384.75
-3187.1
-2919.65
-2543.97
-2091.22
-1577.74
-1014.4
-444.858
134.9
693.256
1210.21
1653.55
2012.56
2257.6
2412.16
2473.75
2452.6
2370.78
2212.7
1997.12
1663.91
1420.31
1121.73
807.932
497.691
211.662
-53.5992
-286.955
-489.09
-661.392
-799.515
-891.939
-976.389
-991.51
-965.576
-907.944
-828.223
-726.211
-605.66
-473.363
-339.198
-216.069
-101.106
0.374723
96.2235
175.09
243.72
294.831
330.408
350.867
354.796
349.634
328.612
302.064
256.016
221.171
171.702
91.6347
48.5871
93.6178
75.6282
124.4
4.79007
-64.5735
-203.125
-224.996
-297.065
-240.731
-295.211
-298.439
-292.987
-264.522
-199.822
-145.729
-193.004
-271.191
-213.261
-100.782
58.6962
63.8332
29.2934
69.1829
106.323
105.609
119.378
162.696
204.185
218.953
223.531
159.11
183.039
259.5
183.827
142.195
162.718
181.818
158.834
50.5421
27.7277
11.1457
-22.526
-19.0687
-20.8997
-54.1936
-40.2433
-5.99489
23.4828
19.9518
2.96474
2.29756
15.3143
-7.12714
0.06687
18.6139
42.0844
36.4197
19.2248
4.56701
-10.4835
5.50217
-15.3858
-63.2887
-19.6858
-30.2878
-103.53
-110.509
-50.5489
-48.1262
-49.1649
398.598
568.956
773.698
1257.64
1864.39
1962.54
1978.88
1832.81
1495.67
980.302
379.912
-294.201
-1013.26
-1746.25
-2419.71
-2988.37
-3426.16
-3756.77
-3898.69
-3994.92
-4007.47
-3882.75
-3650.42
-3337.11
-2901.2
-2379.44
-1786.75
-1138.13
-482.971
173.815
799.416
1375.55
1868.78
2269.19
2545.32
2720.39
2791.81
2771.37
2680.86
2505.57
2268.49
1924.91
1655.28
1296.64
934.252
578.578
250.033
-56.0429
-326.905
-561.71
-758.479
-911.088
-1045.99
-1123.12
-1130.97
-1102.95
-1042.34
-951.825
-833.104
-692.365
-538.992
-385.513
-243.573
-111.382
6.14185
116.195
207.178
284.66
341.618
381.377
404.576
408.558
401.216
376.636
344.257
295.852
252.669
210.754
70.066
113.439
48.5651
74.3768
16.1585
-1.66222
-69.0746
-145.683
-192.548
-270.545
-215.662
-243.792
-173.129
-267.746
-231.622
-143.481
1.01248
-91.5116
-126.002
-239.778
-145.48
4.3623
22.3875
33.3353
167.375
266.311
242.658
203.139
202.467
232.28
234.829
258.754
179.199
131.577
251.563
288.836
240.973
123.238
114.777
131.853
58.776
10.8282
-73.3283
-74.9769
-49.7647
-68.9384
-108.708
-90.7134
-52.0459
-16.4381
10.562
-4.70183
-21.5673
-14.2592
-19.5181
7.20981
23.2968
38.09
24.1919
1.56414
-17.5115
-34.4268
-20.225
-42.187
-86.0414
-36.6293
-50.0857
-123.632
-129.898
-80.2386
-79.1745
-59.3906
421.062
655.438
895.519
1458.04
1985.81
1934.33
1994.39
1919.02
1597.79
1067.84
437.341
-285.775
-1064.03
-1861.37
-2601.44
-3237.34
-3742.38
-4148.11
-4348.28
-4461.54
-4468.32
-4333.25
-4069.76
-3711.01
-3217.1
-2633.5
-1972.12
-1247.21
-515.443
211.442
898.606
1526.85
2061.87
2496.71
2799.95
2994.45
3075.86
3056.54
2958.08
2767.53
2510.91
2189.98
1865.61
1434.37
1041.42
659.648
288.897
-56.8635
-362.715
-627.208
-847.06
-1001.54
-1154.73
-1237.72
-1252.1
-1223.88
-1158.87
-1058.1
-925.093
-768.396
-597.532
-425.166
-264.925
-116.39
14.8347
135.538
236.418
321.982
384.5
427.598
452.973
457.775
449.628
422.369
387.152
335.83
279.098
239.861
97.8734
130.997
-49.7404
-46.1179
-198.288
-121.996
-183.488
-169.583
-245.437
-252.795
-320.147
-295.766
-182.807
-255.903
-201.232
-156.987
-9.39769
-79.9523
90.3463
-123.641
-1.18274
-71.0627
-42.1163
-9.60153
101.884
182.405
215.682
218.054
215.534
238.036
245.057
261.968
255.958
180.749
145.146
204.826
209.881
16.6975
21.436
87.7031
97.9578
4.56471
-131.563
-78.2272
2.09741
-30.6898
-94.2647
-106.476
-91.5432
-68.784
-20.3361
-22.8967
-45.4429
-45.581
-46.0251
-12.4265
4.53871
18.3337
2.92957
-18.5563
-38.4414
-55.5889
-43.3625
-67.6
-106.967
-54.0433
-69.3087
-140.8
-147.383
-109.84
-110.861
-74.1073
443.618
643.906
1038.14
1684.88
2103.41
2010.23
2131.77
2001.84
1640.45
1118.42
480.563
-276.619
-1103.89
-1952.7
-2749.32
-3451.61
-4027.73
-4471.28
-4727.81
-4859.82
-4873.32
-4735.22
-4448.17
-4048.34
-3497.84
-2856.34
-2132.69
-1343.39
-545.088
244.095
985.902
1661.49
2233.83
2698.16
3024.63
3236.93
3328.19
3310.5
3205.09
3001.6
2728.38
2398.09
1987.4
1609.37
1163.55
739.326
324.282
-57.1596
-394.34
-684.615
-916.93
-1112.76
-1266.19
-1341.14
-1357.85
-1332.08
-1262.27
-1150.81
-1004.58
-837.301
-655.453
-463.863
-282.698
-115.316
28.2865
156.658
264.471
356.633
424.849
470.793
497.131
502.04
493.604
464.304
421.771
372.92
306.044
252.863
154.915
110.987
-82.8284
-109.236
-287.57
-230.382
-284.257
-237.729
-323.396
-271.571
-412.304
-335.179
-319.806
-344.319
-279.421
-291.989
-240.811
-203.26
85.9565
-47.6466
142.79
-61.2446
56.9532
38.1683
-23.8241
-52.6723
62.2977
162.076
191.595
219.085
262.992
245.418
305.706
295.867
118.646
91.5404
135.781
30.2919
42.2514
125.58
194.621
84.1393
-53.7139
-19.2472
94.6481
65.6818
-16.1682
-71.8553
-102.652
-103.05
-65.189
-43.5999
-63.0513
-81.4181
-98.0894
-69.2461
-43.7423
-22.7271
-33.459
-45.6197
-62.0309
-76.4102
-65.37
-92.3634
-126.456
-71.6066
-87.2714
-155.346
-162.282
-139.08
-145.419
-94.3495
422.542
652.521
1134.33
1857.42
2177.95
2126.3
2282.95
2080.55
1734.31
1153.46
519.01
-269.251
-1135.41
-2024.04
-2865.88
-3629.77
-4271.35
-4700.95
-5037.5
-5199.76
-5233.2
-5094.69
-4788.09
-4352.88
-3750.08
-3053.87
-2271.15
-1431.37
-572.262
272.238
1061.14
1778.6
2384.66
2875.43
3222.4
3450.76
3551.32
3535.67
3424.55
3210.09
2923.16
2570.13
2080.13
1742.67
1272.95
793.502
346.957
-59.6333
-421.41
-733.567
-991.973
-1219.91
-1361.91
-1435.95
-1456.1
-1432.07
-1357.02
-1235.86
-1077.2
-897.93
-706.158
-501.844
-304.337
-119.947
37.1922
177.433
293.35
390.16
462.59
511.835
539.594
544.1
534.404
502.689
455.113
405.567
334.587
259.908
199.776
98.2202
-50.7401
-66.8899
-232.898
-279.661
-341.433
-304.81
-356.851
-332.598
-375.235
-278.663
-410.428
-441.375
-388.889
-434.595
-430.955
-314.997
-83.024
-48.152
60.6994
-83.0868
209.789
200.344
35.371
-95.0957
0.0293949
127.564
187.774
217.302
282.087
252.711
268.526
364.985
291.627
195.475
189.415
224.802
137.775
117.938
177.132
136.249
67.9638
-10.9446
42.4638
58.886
21.083
-32.9805
-98.0328
-117.029
-102.637
-87.8886
-62.8641
-84.4234
-126.344
-117.666
-90.8833
-63.2774
-70.5689
-71.7191
-82.0378
-92.943
-83.3086
-114.181
-143.601
-89.3844
-104.303
-166.835
-173.134
-155.927
-176.389
-112.785
436.522
724.746
1140.8
1959.61
2209.64
2202.41
2364.87
2113.7
1826.51
1254.99
557.512
-262.209
-1160.79
-2084.92
-2964.65
-3776.73
-4469.17
-4968.85
-5340.15
-5512.46
-5559.85
-5416.7
-5089.57
-4623.44
-3975.48
-3229.72
-2394.9
-1510.15
-593.197
300.29
1131.89
1883.16
2516.28
3029.83
3395.55
3638.71
3747.86
3734.55
3619.1
3395.53
3096.36
2723.6
2226.98
1806.37
1338.81
809.519
363.072
-57.2803
-443.723
-770.965
-1052.42
-1285.85
-1436.15
-1519.36
-1546.68
-1523.49
-1443.16
-1314.29
-1145.13
-947.87
-740.235
-532.293
-328.749
-135.58
36.0264
193.479
320.351
421.104
496.165
549.091
579.646
584.761
573.245
539.184
494.381
434.538
360.768
273.55
222.956
108.868
-29.6282
-81.928
-154.061
-254.192
-354.523
-355.655
-363.422
-384.592
-328.107
-302.9
-429.19
-373.059
-322.977
-409.156
-350.188
-274.067
-176.63
-13.0795
-119.77
-187.085
155.786
267.695
251.002
140.733
115.45
161.421
249.632
278.049
295.402
297.128
218.505
330.191
424.075
357.934
307.134
364.221
183.797
-31.2905
-34.81
27.712
74.6384
-70.8396
-153.994
-96.396
-50.9236
-51.122
-109.234
-132.257
-110.659
-156.315
-68.2725
-47.4041
-82.0134
-99.3406
-104.283
-93.8327
-108.094
-100.93
-106.699
-111.71
-101.476
-135.104
-158.659
-105.759
-119.783
-175.623
-181.666
-173.117
-206.286
-120.614
486.013
749.699
1204.76
2013.01
2209.28
2240.69
2413.21
2145.65
1860.39
1314.21
576.527
-253.441
-1183.92
-2139.98
-3056.07
-3904.21
-4633.8
-5237.66
-5618.77
-5804.35
-5857.74
-5704.95
-5355.33
-4860.5
-4173.67
-3384.87
-2508.52
-1569.37
-606.505
329.619
1201.41
1980.27
2632.12
3163.48
3546.47
3803.19
3920.46
3909.68
3791.18
3560.39
3249.92
2862.08
2387.84
1886.12
1406.54
877.165
384.741
-61.5729
-462.8
-815.316
-1102.91
-1348.26
-1508.18
-1595.1
-1627.03
-1604.34
-1519.44
-1382.88
-1204.79
-991.845
-767.614
-553.12
-343.496
-144.75
37.6087
204.968
339.534
445.928
525.153
581.481
614.845
621.264
608.58
573.135
527.005
460.426
382.593
293.385
237.983
127.007
15.8191
-138.815
-64.3832
-140.827
-282.684
-366.122
-378.901
-380.932
-389.78
-465.316
-393.874
-151.677
-78.8024
-208.858
-171.954
-148.347
-222.696
1.75376
-49.4568
-49.609
15.0329
121.961
329.861
382.388
301.996
254.454
328.196
345.655
303.85
340.884
272.93
205.137
269.937
289.562
300.987
250.419
216.747
-13.3819
-130.785
-96.6963
-28.5096
-71.614
-215.295
-203.275
-135.74
-110.766
-146.213
-165.906
-124.277
-162.694
-141.337
-100.37
-80.0441
-62.118
-86.0421
-95.7144
-127.248
-121.576
-124.143
-126.863
-115.743
-152.405
-170.963
-120.334
-133.942
-182.408
-183.43
-199.191
-226.542
-129.151
493.136
752.486
1280.18
2025.91
2204.12
2258.03
2447.61
2202.32
1911.49
1338.62
604.97
-259.386
-1199.27
-2188.84
-3143.54
-3999.22
-4751.28
-5402.65
-5836.69
-6059.49
-6123.56
-5964.63
-5595.13
-5072.11
-4348.86
-3521.91
-2603.64
-1611.93
-618.205
358.505
1261.94
2067.92
2732.49
3280.03
3677.64
3946.49
4071.67
4063.55
3943
3706.82
3386.27
2985.49
2526.31
1959.23
1466.44
954.704
424.451
-54.7981
-475.501
-849.631
-1164.97
-1412.67
-1574.4
-1664.53
-1698.35
-1674.46
-1584.94
-1439.21
-1252.46
-1036.32
-805.271
-570.991
-345.216
-134.086
52.5734
215.636
351.446
465.851
551.836
611.009
645.83
652.164
638.844
602.058
552.49
483.576
402.086
314.408
248.956
131.037
129.779
-48.3287
-10.5731
-107.411
-195.577
-331.571
-384.815
-363.106
-452.167
-528.616
-319.515
-83.3537
-78.9464
-87.4496
-112.052
-109.643
-285.639
-97.252
307.234
415.944
41.7854
-39.8907
191.183
384.17
389.852
352.724
338.562
327.431
308.229
359.299
392.835
139.279
88.6539
135.157
193.173
90.0394
287.851
373.838
140.77
7.53857
-105.448
-2.60199
-45.4029
-134.195
-115.701
-129.77
-176.869
-199.564
-195.394
-80.0898
-226.251
-265.983
-225.645
-128.759
-103.533
-106.485
-144.086
-142.134
-151.093
-151.166
-138.417
-176.927
-186.681
-138.023
-149.946
-185.959
-183.601
-201.045
-237.055
-134.065
512.056
785.057
1341.27
2027.54
2212.27
2289.08
2478.19
2253.65
1952.98
1374.72
630.971
-243.439
-1210.84
-2217.6
-3199.6
-4130.05
-4917.28
-5570.47
-6027.99
-6275.37
-6354.71
-6197.85
-5814.66
-5264.95
-4507.08
-3644.44
-2670.46
-1668.7
-626.86
385.005
1314.12
2138.75
2818