/*--------------------------------*- C++ -*----------------------------------*\
| =========                 |                                                 |
| \\      /  F ield         | OpenFOAM: The Open Source CFD Toolbox           |
|  \\    /   O peration     | Version:  v2012                                 |
|   \\  /    A nd           | Website:  www.openfoam.com                      |
|    \\/     M anipulation  |                                                 |
\*---------------------------------------------------------------------------*/
FoamFile
{
    version     2.0;
    format      ascii;
    class       volScalarField;
    location    "0.08";
    object      ddt0(rhoN);
}
// * * * * * * * * * * * * * * * * * * * * * * * * * * * * * * * * * * * * * //

dimensions      [0 -3 -1 0 0 0 0];


internalField   nonuniform List<scalar> 
18000
(
1.14924e-31
1.21823e-31
1.25788e-31
1.27561e-31
1.27392e-31
1.26843e-31
1.2615e-31
1.25152e-31
1.23617e-31
1.21712e-31
1.18858e-31
1.14919e-31
1.09966e-31
1.04173e-31
9.78812e-32
9.17133e-32
8.6475e-32
8.33152e-32
8.35098e-32
8.82292e-32
9.73462e-32
1.0735e-31
1.06043e-31
6.32315e-32
-8.19574e-32
-4.35024e-31
-1.14977e-30
-2.39383e-30
-4.22141e-30
-6.27458e-30
-7.22362e-30
-3.86335e-30
1.02574e-29
4.68588e-29
1.25946e-28
2.80275e-28
5.61555e-28
1.04875e-27
1.85779e-27
3.15142e-27
5.14583e-27
8.10717e-27
1.23306e-26
1.80867e-26
2.55283e-26
3.45355e-26
4.44858e-26
5.39022e-26
5.99201e-26
5.7457e-26
3.7959e-26
-1.24521e-26
-1.1562e-25
-3.04928e-25
-6.30067e-25
-1.16267e-24
-2.00303e-24
-3.28759e-24
-5.19999e-24
-7.98279e-24
-1.19435e-23
-1.74415e-23
-2.48846e-23
-3.47887e-23
-4.79425e-23
-6.55372e-23
-8.90292e-23
-1.19615e-22
-1.57648e-22
-2.02356e-22
-2.51638e-22
-3.00534e-22
-3.37509e-22
-3.40679e-22
-2.80856e-22
-1.38737e-22
6.44814e-23
2.4069e-22
2.41903e-22
-7.50462e-23
-7.36262e-22
-1.54368e-21
-2.05419e-21
-1.70386e-21
-6.72086e-23
2.84772e-21
6.42082e-21
9.4897e-21
1.06992e-20
9.02463e-21
4.26121e-21
-2.74941e-21
-1.02894e-20
-1.6302e-20
-1.91121e-20
-1.80383e-20
-1.36526e-20
-7.56168e-21
-1.78321e-21
2.04488e-21
3.31925e-21
2.7311e-21
2.02601e-21
3.34326e-21
8.37563e-21
1.76566e-20
3.02393e-20
4.38939e-20
5.57841e-20
6.3403e-20
6.54805e-20
6.25538e-20
5.69995e-20
5.24909e-20
5.29881e-20
6.15493e-20
7.92675e-20
1.04641e-19
1.33549e-19
1.59873e-19
1.7663e-19
1.7737e-19
1.5751e-19
1.15359e-19
5.25593e-20
-2.60899e-20
-1.134e-19
-2.01016e-19
-2.80779e-19
-3.46029e-19
-3.92541e-19
-4.1897e-19
-4.2673e-19
-4.19462e-19
-4.02113e-19
-3.80015e-19
-3.58001e-19
-3.39769e-19
-3.27806e-19
-3.21945e-19
-3.27523e-19
-3.13784e-19
-4.22747e-19
1.05868e-21
-1.79782e-18
5.24265e-18
-2.16729e-17
7.22409e-17
-2.311e-16
5.63954e-16
1.06909e-31
1.13923e-31
1.17856e-31
1.19382e-31
1.19016e-31
1.18188e-31
1.17443e-31
1.16412e-31
1.15243e-31
1.13686e-31
1.11097e-31
1.07211e-31
1.02007e-31
9.57407e-32
8.89667e-32
8.2604e-32
7.77698e-32
7.56366e-32
7.64522e-32
7.8377e-32
7.54858e-32
5.52205e-32
-3.62348e-33
-1.28684e-31
-3.40976e-31
-6.13294e-31
-7.70426e-31
-2.85477e-31
2.07115e-30
8.74675e-30
2.40627e-29
5.49132e-29
1.11487e-28
2.07815e-28
3.6189e-28
5.9445e-28
9.24813e-28
1.36108e-27
1.88019e-27
2.39195e-27
2.67758e-27
2.29371e-27
4.26896e-28
-4.30065e-27
-1.40951e-26
-3.23047e-26
-6.38227e-26
-1.1556e-25
-1.97061e-25
-3.21252e-25
-5.05349e-25
-7.71889e-25
-1.14983e-24
-1.67563e-24
-2.39449e-24
-3.3604e-24
-4.63347e-24
-6.27311e-24
-8.33688e-24
-1.08938e-23
-1.4039e-23
-1.78414e-23
-2.21744e-23
-2.65342e-23
-3.02055e-23
-3.31013e-23
-3.69689e-23
-4.55659e-23
-6.18425e-23
-8.14686e-23
-8.51413e-23
-3.5064e-23
1.19544e-22
4.27881e-22
9.19879e-22
1.59364e-21
2.41144e-21
3.30406e-21
4.1804e-21
4.94988e-21
5.56127e-21
6.06e-21
6.62963e-21
7.57687e-21
9.21416e-21
1.16568e-20
1.4607e-20
1.72536e-20
1.8392e-20
1.67835e-20
1.16548e-20
3.13224e-21
-7.59362e-21
-1.84955e-20
-2.72955e-20
-3.22019e-20
-3.25355e-20
-2.8979e-20
-2.33423e-20
-1.79147e-20
-1.46149e-20
-1.42622e-20
-1.62116e-20
-1.85119e-20
-1.85309e-20
-1.38538e-20
-3.17296e-21
1.31403e-20
3.29532e-20
5.28346e-20
6.89423e-20
7.80654e-20
7.85419e-20
7.07875e-20
5.72685e-20
4.19668e-20
2.94471e-20
2.37978e-20
2.76514e-20
4.15878e-20
6.39409e-20
9.10726e-20
1.18015e-19
1.39331e-19
1.49975e-19
1.46115e-19
1.25639e-19
8.83638e-20
3.60383e-20
-2.80966e-20
-9.98148e-20
-1.74415e-19
-2.47363e-19
-3.14718e-19
-3.73391e-19
-4.21336e-19
-4.57524e-19
-4.81783e-19
-4.94899e-19
-4.96999e-19
-4.9524e-19
-4.62697e-19
-5.37766e-19
-1.06313e-19
-1.79281e-18
5.06868e-18
-2.06633e-17
6.83459e-17
-2.18485e-16
5.61142e-16
8.98449e-32
9.68394e-32
1.00655e-31
1.01883e-31
1.01185e-31
1.00047e-31
9.91152e-32
9.83183e-32
9.78065e-32
9.6891e-32
9.47371e-32
9.08261e-32
8.50957e-32
7.79722e-32
7.03586e-32
6.35675e-32
5.87726e-32
5.60674e-32
5.23673e-32
4.01763e-32
7.41902e-33
-5.7205e-32
-1.47051e-31
-1.99982e-31
-2.42283e-32
8.38302e-31
3.33358e-30
9.2008e-30
2.12457e-29
4.33187e-29
7.96084e-29
1.3273e-28
2.00102e-28
2.67621e-28
2.99092e-28
2.18135e-28
-1.20895e-28
-9.80433e-28
-2.81167e-27
-6.35906e-27
-1.28082e-26
-2.39648e-26
-4.2485e-26
-7.20805e-26
-1.17747e-25
-1.85874e-25
-2.84306e-25
-4.22167e-25
-6.09455e-25
-8.56077e-25
-1.17016e-24
-1.55508e-24
-2.00481e-24
-2.49688e-24
-2.98271e-24
-3.37483e-24
-3.52685e-24
-3.2029e-24
-2.03355e-24
5.08126e-25
5.07888e-24
1.2421e-23
2.35981e-23
4.07576e-23
6.80988e-23
1.11523e-22
1.75765e-22
2.60208e-22
3.58616e-22
4.67463e-22
6.01011e-22
8.00528e-22
1.12373e-21
1.61393e-21
2.27279e-21
3.07064e-21
4.00699e-21
5.18411e-21
6.81998e-21
9.14505e-21
1.22037e-20
1.56812e-20
1.88943e-20
2.1024e-20
2.14963e-20
2.03152e-20
1.81174e-20
1.58742e-20
1.43528e-20
1.36209e-20
1.28765e-20
1.07383e-20
5.907e-21
-2.12438e-21
-1.26371e-20
-2.37934e-20
-3.3279e-20
-3.92272e-20
-4.10482e-20
-3.97764e-20
-3.77329e-20
-3.76121e-20
-4.12782e-20
-4.87775e-20
-5.79538e-20
-6.49026e-20
-6.51972e-20
-5.54777e-20
-3.49653e-20
-6.28894e-21
2.46464e-20
4.98074e-20
6.10014e-20
5.20898e-20
2.09458e-20
-2.94051e-20
-9.07868e-20
-1.51019e-19
-1.96123e-19
-2.12896e-19
-1.91623e-19
-1.2819e-19
-2.52379e-20
1.07799e-19
2.55858e-19
4.00459e-19
5.22386e-19
6.04577e-19
6.34859e-19
6.07488e-19
5.23895e-19
3.92466e-19
2.26774e-19
4.36376e-20
-1.39385e-19
-3.06357e-19
-4.44637e-19
-5.45949e-19
-6.06984e-19
-6.27494e-19
-6.17434e-19
-5.55377e-19
-5.84072e-19
-1.02349e-19
-1.72705e-18
5.08421e-18
-1.968e-17
6.61506e-17
-2.13014e-16
5.69732e-16
6.47075e-32
7.14504e-32
7.50586e-32
7.61379e-32
7.52885e-32
7.39039e-32
7.27683e-32
7.20845e-32
7.19895e-32
7.15422e-32
6.98885e-32
6.63306e-32
6.08283e-32
5.38524e-32
4.63122e-32
3.91454e-32
3.22171e-32
2.30511e-32
5.78756e-33
-2.57463e-32
-6.61458e-32
-7.2643e-32
8.31328e-32
6.8814e-31
2.28202e-30
5.74603e-30
1.22869e-29
2.30748e-29
3.80315e-29
5.30611e-29
5.49033e-29
1.29972e-29
-1.32771e-28
-4.89296e-28
-1.23438e-27
-2.65039e-27
-5.16666e-27
-9.41641e-27
-1.62994e-26
-2.70437e-26
-4.3248e-26
-6.68374e-26
-9.99103e-26
-1.44319e-25
-2.00997e-25
-2.68837e-25
-3.43104e-25
-4.13104e-25
-4.58835e-25
-4.46079e-25
-3.19397e-25
7.70157e-27
6.66751e-25
1.85285e-24
3.85176e-24
7.06741e-24
1.20535e-23
1.95519e-23
3.06086e-23
4.67354e-23
6.9961e-23
1.0243e-22
1.45986e-22
2.0297e-22
2.79675e-22
3.9078e-22
5.60087e-22
8.11793e-22
1.15296e-21
1.55467e-21
1.94386e-21
2.21018e-21
2.22418e-21
1.86031e-21
1.03308e-21
-2.35065e-22
-1.70659e-21
-2.83963e-21
-2.82147e-21
-8.47279e-22
3.38285e-21
9.14368e-21
1.45135e-20
1.68348e-20
1.3811e-20
4.82461e-21
-8.19424e-21
-2.09383e-20
-2.80884e-20
-2.54114e-20
-1.17264e-20
1.01998e-20
3.43371e-20
5.3423e-20
6.16325e-20
5.66703e-20
4.05165e-20
1.8462e-20
-3.14489e-21
-1.94454e-20
-2.8916e-20
-3.37396e-20
-3.85822e-20
-4.8321e-20
-6.56458e-20
-8.9546e-20
-1.15303e-19
-1.36016e-19
-1.45273e-19
-1.39855e-19
-1.21706e-19
-9.8302e-20
-8.111e-20
-8.26553e-20
-1.12618e-19
-1.74343e-19
-2.62586e-19
-3.63193e-19
-4.551e-19
-5.13958e-19
-5.17065e-19
-4.48198e-19
-3.014e-19
-8.31371e-20
1.88044e-19
4.83952e-19
7.70872e-19
1.01489e-18
1.18733e-18
1.26891e-18
1.25258e-18
1.14432e-18
9.6114e-19
7.28378e-19
4.75114e-19
2.29737e-19
1.65797e-20
-1.46975e-19
-2.51902e-19
-2.95561e-19
-2.88451e-19
-2.14145e-19
-2.12714e-19
2.78866e-19
-1.25402e-18
5.35731e-18
-1.8645e-17
6.54922e-17
-2.06601e-16
5.63234e-16
3.27592e-32
3.90607e-32
4.24076e-32
4.35501e-32
4.2836e-32
4.13473e-32
3.9945e-32
3.88622e-32
3.8393e-32
3.77604e-32
3.65144e-32
3.40207e-32
3.02634e-32
2.53126e-32
1.91056e-32
1.07826e-32
-1.92541e-33
-2.12832e-32
-4.39919e-32
-4.66876e-32
3.96004e-32
3.63837e-31
1.18447e-30
2.85789e-30
5.70236e-30
9.5576e-30
1.26965e-29
9.47841e-30
-1.39429e-29
-8.63774e-29
-2.61086e-28
-6.26883e-28
-1.32138e-27
-2.54324e-27
-4.56147e-27
-7.71341e-27
-1.23769e-26
-1.88996e-26
-2.74424e-26
-3.76923e-26
-4.83521e-26
-5.63196e-26
-5.53927e-26
-3.4523e-26
2.46545e-26
1.50728e-25
3.86376e-25
7.92832e-25
1.45597e-24
2.49387e-24
4.06687e-24
6.39027e-24
9.75148e-24
1.45308e-23
2.12358e-23
3.05308e-23
4.32578e-23
6.04189e-23
8.32508e-23
1.13494e-22
1.53825e-22
2.07584e-22
2.76926e-22
3.59977e-22
4.51713e-22
5.54119e-22
6.94288e-22
9.32893e-22
1.33585e-21
1.89678e-21
2.4392e-21
2.56747e-21
1.73126e-21
-5.90209e-22
-4.65824e-21
-1.03084e-20
-1.69162e-20
-2.35059e-20
-2.89557e-20
-3.2324e-20
-3.32604e-20
-3.24863e-20
-3.20226e-20
-3.48869e-20
-4.39446e-20
-6.02027e-20
-8.11927e-20
-1.00483e-19
-1.08982e-19
-9.79589e-20
-6.27664e-20
-5.65029e-21
6.37818e-20
1.30913e-19
1.80738e-19
2.02806e-19
1.94786e-19
1.62992e-19
1.19757e-19
7.874e-20
4.98266e-20
3.5754e-20
3.14691e-20
2.6497e-20
9.2492e-21
-2.83573e-20
-8.75664e-20
-1.61951e-19
-2.39362e-19
-3.05808e-19
-3.50251e-19
-3.6848e-19
-3.64822e-19
-3.51352e-19
-3.44133e-19
-3.58275e-19
-4.02726e-19
-4.76491e-19
-5.67362e-19
-6.53522e-19
-7.07869e-19
-7.0369e-19
-6.206e-19
-4.49533e-19
-1.95025e-19
1.24626e-19
4.80061e-19
8.35894e-19
1.15628e-18
1.41082e-18
1.5793e-18
1.65409e-18
1.64024e-18
1.55409e-18
1.41906e-18
1.26135e-18
1.1063e-18
9.74254e-19
8.78323e-19
8.25877e-19
8.11875e-19
8.50584e-19
8.34293e-19
1.20772e-18
-1.73377e-19
5.89e-18
-1.71272e-17
6.53974e-17
-1.9975e-16
5.39201e-16
-4.27724e-33
1.06538e-33
4.16665e-33
5.74263e-33
5.68512e-33
4.39269e-33
2.48062e-33
1.21474e-34
-2.03935e-33
-3.92957e-33
-5.06873e-33
-5.72735e-33
-6.07141e-33
-7.15633e-33
-1.10275e-32
-2.03692e-32
-3.56284e-32
-4.64858e-32
-1.71574e-32
1.31079e-31
5.22776e-31
1.28225e-30
2.37886e-30
3.26831e-30
2.1532e-30
-5.44246e-30
-2.91602e-29
-8.78064e-29
-2.14298e-28
-4.59738e-28
-8.93757e-28
-1.59589e-27
-2.63416e-27
-4.02022e-27
-5.62958e-27
-7.0573e-27
-7.38702e-27
-4.80392e-27
4.00195e-27
2.4723e-26
6.67773e-26
1.44993e-25
2.82062e-25
5.10918e-25
8.78025e-25
1.44584e-24
2.29606e-24
3.53149e-24
5.27847e-24
7.6875e-24
1.09334e-23
1.52131e-23
2.07405e-23
2.77341e-23
3.64033e-23
4.69329e-23
5.9446e-23
7.3823e-23
8.92691e-23
1.0407e-22
1.16552e-22
1.27105e-22
1.36402e-22
1.33477e-22
7.68418e-23
-1.07465e-22
-4.85846e-22
-1.0436e-21
-1.64709e-21
-2.11731e-21
-2.42496e-21
-2.88106e-21
-4.15268e-21
-7.01205e-21
-1.1958e-20
-1.89866e-20
-2.77344e-20
-3.79147e-20
-4.9683e-20
-6.35771e-20
-7.99677e-20
-9.84796e-20
-1.17808e-19
-1.36259e-19
-1.52435e-19
-1.65559e-19
-1.7479e-19
-1.77989e-19
-1.70805e-19
-1.47201e-19
-1.01755e-19
-3.29262e-20
5.4258e-20
1.47843e-19
2.31603e-19
2.89969e-19
3.13544e-19
3.02627e-19
2.67359e-19
2.24141e-19
1.89431e-19
1.73517e-19
1.76159e-19
1.86224e-19
1.85186e-19
1.53508e-19
7.78537e-20
-4.35168e-20
-1.98663e-19
-3.64147e-19
-5.10997e-19
-6.1239e-19
-6.51157e-19
-6.24866e-19
-5.46627e-19
-4.42214e-19
-3.43578e-19
-2.81049e-19
-2.75566e-19
-3.33874e-19
-4.4668e-19
-5.904e-19
-7.32097e-19
-8.36029e-19
-8.6986e-19
-8.1075e-19
-6.48626e-19
-3.86721e-19
-4.15277e-20
3.61595e-19
7.9269e-19
1.22044e-18
1.61734e-18
1.96244e-18
2.24242e-18
2.45188e-18
2.59295e-18
2.67239e-18
2.69947e-18
2.68648e-18
2.64029e-18
2.58762e-18
2.44699e-18
2.64334e-18
1.24734e-18
6.44175e-18
-1.4171e-17
6.00858e-17
-1.79814e-16
5.05908e-16
-4.4871e-32
-4.07013e-32
-3.77782e-32
-3.53694e-32
-3.41393e-32
-3.48308e-32
-3.763e-32
-4.23949e-32
-4.78321e-32
-5.23251e-32
-5.40016e-32
-5.24759e-32
-4.83102e-32
-4.39615e-32
-4.24895e-32
-4.38222e-32
-3.64315e-32
1.50387e-32
1.7546e-31
5.11772e-31
9.81806e-31
1.17169e-30
-1.94697e-31
-6.02097e-30
-2.19393e-29
-5.77152e-29
-1.28422e-28
-2.53922e-28
-4.52458e-28
-7.21898e-28
-1.00056e-27
-1.10068e-27
-6.02076e-28
1.30338e-27
6.03378e-27
1.59404e-26
3.47199e-26
6.80305e-26
1.24266e-25
2.15545e-25
3.58964e-25
5.7756e-25
9.01443e-25
1.3672e-24
2.01699e-24
2.89431e-24
4.03831e-24
5.47325e-24
7.19347e-24
9.13969e-24
1.1165e-23
1.29861e-23
1.41086e-23
1.37193e-23
1.05086e-23
2.50046e-24
-1.31553e-23
-4.05573e-23
-8.64105e-23
-1.61868e-22
-2.82729e-22
-4.64359e-22
-7.17447e-22
-1.05961e-21
-1.55831e-21
-2.38165e-21
-3.79966e-21
-6.0702e-21
-9.23247e-21
-1.29185e-20
-1.63514e-20
-1.85744e-20
-1.88211e-20
-1.68103e-20
-1.28875e-20
-8.09639e-21
-4.39082e-21
-4.88261e-21
-1.37283e-20
-3.49877e-20
-7.04424e-20
-1.17192e-19
-1.66687e-19
-2.06559e-19
-2.25077e-19
-2.16468e-19
-1.84117e-19
-1.39668e-19
-9.79394e-20
-7.00631e-20
-5.82495e-20
-5.49073e-20
-4.67608e-20
-2.15439e-20
2.55343e-20
8.93579e-20
1.57201e-19
2.14742e-19
2.52913e-19
2.72042e-19
2.81341e-19
2.93982e-19
3.19451e-19
3.57177e-19
3.93865e-19
4.06428e-19
3.69817e-19
2.66739e-19
9.66659e-20
-1.20214e-19
-3.45116e-19
-5.28711e-19
-6.2385e-19
-5.98367e-19
-4.4549e-19
-1.88521e-19
1.21847e-19
4.16269e-19
6.21407e-19
6.74127e-19
5.35529e-19
1.99698e-19
-3.04202e-19
-9.1548e-19
-1.55103e-18
-2.11873e-18
-2.5306e-18
-2.71512e-18
-2.6297e-18
-2.26351e-18
-1.63868e-18
-8.08859e-19
1.52456e-19
1.1607e-18
2.13206e-18
2.99427e-18
3.69361e-18
4.19844e-18
4.49925e-18
4.60764e-18
4.54631e-18
4.36457e-18
4.03061e-18
3.90796e-18
2.58008e-18
6.23227e-18
-1.03858e-17
5.14775e-17
-1.5788e-16
4.77517e-16
-8.73776e-32
-8.44014e-32
-8.14266e-32
-7.767e-32
-7.45579e-32
-7.43542e-32
-7.84561e-32
-8.68454e-32
-9.71108e-32
-1.05671e-31
-1.09033e-31
-1.05725e-31
-9.62853e-32
-8.28593e-32
-6.48883e-32
-3.22244e-32
4.06317e-32
1.86033e-31
3.91804e-31
4.62046e-31
-2.53631e-31
-3.26571e-30
-1.14082e-29
-2.90568e-29
-6.15255e-29
-1.12365e-28
-1.75899e-28
-2.19536e-28
-1.48289e-28
2.56662e-28
1.43416e-27
4.16822e-27
9.75936e-27
2.02166e-26
3.84701e-26
6.85699e-26
1.15777e-25
1.86577e-25
2.8834e-25
4.28519e-25
6.1291e-25
8.42224e-25
1.1063e-24
1.37494e-24
1.58445e-24
1.61974e-24
1.28935e-24
2.94115e-25
-1.81887e-24
-5.71709e-24
-1.23709e-23
-2.31726e-23
-4.0118e-23
-6.6037e-23
-1.05012e-22
-1.62809e-22
-2.47424e-22
-3.69249e-22
-5.42008e-22
-7.85579e-22
-1.1325e-21
-1.62978e-21
-2.32295e-21
-3.21758e-21
-4.27018e-21
-5.4839e-21
-7.11994e-21
-9.83473e-21
-1.4451e-20
-2.12344e-20
-2.89915e-20
-3.46597e-20
-3.39485e-20
-2.29966e-20
-3.25957e-22
3.1848e-20
6.74948e-20
9.78745e-20
1.13462e-19
1.06676e-19
7.49887e-20
2.4029e-20
-3.13684e-20
-6.97325e-20
-7.03495e-20
-2.31681e-20
6.28657e-20
1.58482e-19
2.22093e-19
2.15385e-19
1.20122e-19
-5.14586e-20
-2.58423e-19
-4.44267e-19
-5.57555e-19
-5.69593e-19
-4.83559e-19
-3.30313e-19
-1.5401e-19
5.78331e-21
1.28103e-19
2.14904e-19
2.84806e-19
3.60008e-19
4.52323e-19
5.55079e-19
6.43888e-19
6.85882e-19
6.54867e-19
5.44724e-19
3.77948e-19
2.047e-19
9.11361e-20
1.02381e-19
2.80975e-19
6.30344e-19
1.10651e-18
1.62034e-18
2.0533e-18
2.27852e-18
2.18839e-18
1.71833e-18
8.62671e-19
-3.18446e-19
-1.70595e-18
-3.13859e-18
-4.43584e-18
-5.42516e-18
-5.97063e-18
-5.98981e-18
-5.46616e-18
-4.45339e-18
-3.06037e-18
-1.43731e-18
2.492e-19
1.84081e-18
3.20458e-18
4.24874e-18
4.92779e-18
5.24001e-18
5.21873e-18
4.93637e-18
4.41619e-18
3.9852e-18
2.59494e-18
5.26667e-18
-8.86926e-18
4.35998e-17
-1.4027e-16
4.54494e-16
-1.3014e-31
-1.28175e-31
-1.24703e-31
-1.19088e-31
-1.13617e-31
-1.12228e-31
-1.18153e-31
-1.31328e-31
-1.47897e-31
-1.6216e-31
-1.68783e-31
-1.64134e-31
-1.46645e-31
-1.14224e-31
-5.86966e-32
3.45096e-32
1.65316e-31
2.51023e-31
-9.98154e-33
-1.33678e-30
-5.02032e-30
-1.27542e-29
-2.56456e-29
-4.1533e-29
-4.90329e-29
-1.55111e-29
1.35092e-28
5.62431e-28
1.56974e-27
3.67885e-27
7.71247e-27
1.48442e-26
2.66105e-26
4.4788e-26
7.10797e-26
1.06402e-25
1.49651e-25
1.95585e-25
2.31391e-25
2.31518e-25
1.49312e-25
-9.41215e-26
-6.27796e-25
-1.65044e-24
-3.46084e-24
-6.48681e-24
-1.1329e-23
-1.88025e-23
-3.00036e-23
-4.63806e-23
-6.98423e-23
-1.02892e-22
-1.48822e-22
-2.11894e-22
-2.97695e-22
-4.13619e-22
-5.6955e-22
-7.76774e-22
-1.04425e-21
-1.37693e-21
-1.79126e-21
-2.34405e-21
-3.11617e-21
-4.07071e-21
-4.83765e-21
-4.70372e-21
-3.09324e-21
-4.07627e-22
1.54382e-21
3.27374e-22
-5.03433e-21
-1.19772e-20
-1.39843e-20
-2.88394e-21
2.71874e-20
7.63911e-20
1.38616e-19
2.04023e-19
2.63072e-19
3.09928e-19
3.43812e-19
3.69229e-19
3.95081e-19
4.33425e-19
4.95132e-19
5.83215e-19
6.84216e-19
7.64097e-19
7.72639e-19
6.59143e-19
3.94398e-19
-1.00418e-20
-4.96027e-19
-9.70634e-19
-1.33472e-18
-1.51485e-18
-1.48846e-18
-1.28895e-18
-9.90653e-19
-6.79727e-19
-4.22491e-19
-2.44819e-19
-1.28453e-19
-2.55506e-20
1.16859e-19
3.32811e-19
6.22162e-19
9.49981e-19
1.26055e-18
1.49836e-18
1.63143e-18
1.66606e-18
1.64797e-18
1.65188e-18
1.75555e-18
2.01341e-18
2.43234e-18
2.95824e-18
3.47965e-18
3.84471e-18
3.89294e-18
3.49069e-18
2.56326e-18
1.11929e-18
-7.44364e-19
-2.85158e-18
-4.97165e-18
-6.85641e-18
-8.27996e-18
-9.0728e-18
-9.14859e-18
-8.51712e-18
-7.27513e-18
-5.59248e-18
-3.67987e-18
-1.75429e-18
-1.43089e-20
1.3901e-18
2.37018e-18
2.89485e-18
2.98962e-18
2.73168e-18
2.17693e-18
1.62964e-18
2.738e-19
2.40462e-18
-9.8949e-18
3.64158e-17
-1.28884e-16
4.35472e-16
-1.71586e-31
-1.70035e-31
-1.65551e-31
-1.57592e-31
-1.49351e-31
-1.4656e-31
-1.54592e-31
-1.73577e-31
-1.98064e-31
-2.19878e-31
-2.31026e-31
-2.23552e-31
-1.90681e-31
-1.25078e-31
-2.19517e-32
9.57527e-32
1.09844e-31
-3.06202e-31
-1.7788e-30
-5.1109e-30
-1.05222e-29
-1.55833e-29
-1.09808e-29
2.66629e-29
1.46384e-28
4.40704e-28
1.06951e-27
2.28885e-27
4.46207e-27
8.01325e-27
1.32732e-26
2.01518e-26
2.75489e-26
3.23811e-26
2.80923e-26
2.27841e-27
-6.6477e-26
-2.13648e-25
-4.9571e-25
-9.99742e-25
-1.8579e-24
-3.26305e-24
-5.4937e-24
-8.93212e-24
-1.40951e-23
-2.16471e-23
-3.24255e-23
-4.74394e-23
-6.78754e-23
-9.50628e-23
-1.30426e-22
-1.75387e-22
-2.31177e-22
-2.98434e-22
-3.76508e-22
-4.62891e-22
-5.52552e-22
-6.3515e-22
-6.84219e-22
-6.43146e-22
-4.28636e-22
2.43543e-23
7.33285e-22
1.78208e-21
3.69497e-21
7.8424e-21
1.63524e-20
3.09693e-20
5.12417e-20
7.32799e-20
9.07062e-20
9.77709e-20
9.31101e-20
8.12986e-20
7.13324e-20
7.30662e-20
9.4852e-20
1.43752e-19
2.27365e-19
3.53647e-19
5.26675e-19
7.40344e-19
9.74189e-19
1.19681e-18
1.37442e-18
1.48138e-18
1.50354e-18
1.43463e-18
1.26756e-18
9.90448e-19
5.92236e-19
7.72219e-20
-5.19659e-19
-1.12819e-18
-1.65538e-18
-2.01246e-18
-2.14694e-18
-2.06284e-18
-1.82109e-18
-1.51715e-18
-1.24428e-18
-1.05884e-18
-9.58726e-19
-8.86621e-19
-7.53046e-19
-4.71644e-19
6.09809e-21
6.703e-19
1.45181e-18
2.2406e-18
2.91946e-18
3.39822e-18
3.64044e-18
3.67526e-18
3.5847e-18
3.47903e-18
3.46065e-18
3.58931e-18
3.8573e-18
4.18377e-18
4.42861e-18
4.42306e-18
4.01038e-18
3.08786e-18
1.6336e-18
-2.78496e-19
-2.48784e-18
-4.77699e-18
-6.90404e-18
-8.64866e-18
-9.84809e-18
-1.04167e-17
-1.03571e-17
-9.75471e-18
-8.7555e-18
-7.53653e-18
-6.28485e-18
-5.16024e-18
-4.27546e-18
-3.70005e-18
-3.44576e-18
-3.47255e-18
-3.74246e-18
-4.02364e-18
-4.90956e-18
-3.03574e-18
-1.29003e-17
2.74708e-17
-1.18864e-16
4.06406e-16
-2.09971e-31
-2.08077e-31
-2.02121e-31
-1.91381e-31
-1.79831e-31
-1.7526e-31
-1.85449e-31
-2.11145e-31
-2.45131e-31
-2.75869e-31
-2.91083e-31
-2.76294e-31
-2.20084e-31
-1.22552e-31
-2.07381e-32
-4.20824e-32
-4.68198e-31
-1.71622e-30
-3.99854e-30
-6.23384e-30
-3.63457e-30
1.65259e-29
8.11025e-29
2.37624e-28
5.58811e-28
1.13954e-27
2.07196e-27
3.36748e-27
4.76805e-27
5.36973e-27
2.95982e-27
-6.93834e-27
-3.25349e-26
-8.76813e-26
-1.94362e-25
-3.85939e-25
-7.10552e-25
-1.23623e-24
-2.05638e-24
-3.29637e-24
-5.12184e-24
-7.74161e-24
-1.14112e-23
-1.64148e-23
-2.30409e-23
-3.15191e-23
-4.19311e-23
-5.40606e-23
-6.71639e-23
-7.96228e-23
-8.84166e-23
-8.83789e-23
-7.10048e-23
-2.28822e-23
7.72073e-23
2.61725e-22
5.79137e-22
1.09553e-21
1.90095e-21
3.13201e-21
5.03918e-21
8.02732e-21
1.252e-20
1.85617e-20
2.56766e-20
3.37281e-20
4.48471e-20
6.45529e-20
9.96568e-20
1.5242e-19
2.14375e-19
2.6501e-19
2.78412e-19
2.35298e-19
1.34288e-19
-3.6853e-21
-1.38796e-19
-2.21298e-19
-2.02054e-19
-4.44843e-20
2.62701e-19
6.93004e-19
1.1775e-18
1.61583e-18
1.90447e-18
1.97425e-18
1.81841e-18
1.49597e-18
1.10526e-18
7.39956e-19
4.50017e-19
2.26412e-19
1.85761e-20
-2.3041e-19
-5.45222e-19
-9.03798e-19
-1.24788e-18
-1.51521e-18
-1.67331e-18
-1.73652e-18
-1.75625e-18
-1.79103e-18
-1.8673e-18
-1.95516e-18
-1.96664e-18
-1.78289e-18
-1.29905e-18
-4.68487e-19
6.66208e-19
1.9715e-18
3.24995e-18
4.28662e-18
4.90647e-18
5.02139e-18
4.6551e-18
3.94131e-18
3.0916e-18
2.34529e-18
1.90591e-18
1.89479e-18
2.31832e-18
3.0652e-18
3.93382e-18
4.67823e-18
5.05856e-18
4.89333e-18
4.08836e-18
2.64294e-18
6.55992e-19
-1.71197e-18
-4.26761e-18
-6.80034e-18
-9.12695e-18
-1.11058e-17
-1.26494e-17
-1.37273e-17
-1.43678e-17
-1.46347e-17
-1.4606e-17
-1.43777e-17
-1.40278e-17
-1.36105e-17
-1.31816e-17
-1.2669e-17
-1.24937e-17
-1.03634e-17
-1.7357e-17
1.79576e-17
-1.12062e-16
3.84488e-16
-2.44061e-31
-2.40934e-31
-2.32956e-31
-2.18976e-31
-2.03506e-31
-1.96742e-31
-2.09114e-31
-2.42202e-31
-2.86437e-31
-3.25723e-31
-3.42393e-31
-3.17151e-31
-2.45198e-31
-1.63629e-31
-1.91747e-31
-5.49018e-31
-1.43468e-30
-2.54683e-30
-1.94158e-30
6.04348e-30
3.35792e-29
1.0154e-28
2.38175e-28
4.67666e-28
7.77703e-28
1.04715e-27
9.02268e-28
-5.72681e-28
-5.32839e-27
-1.70962e-26
-4.24751e-26
-9.21453e-26
-1.82475e-25
-3.36903e-25
-5.87045e-25
-9.72708e-25
-1.53988e-24
-2.33689e-24
-3.40552e-24
-4.76695e-24
-6.39581e-24
-8.17857e-24
-9.84017e-24
-1.08421e-23
-1.02159e-23
-6.35942e-24
3.28335e-24
2.25994e-23
5.74242e-23
1.16285e-22
2.11567e-22
3.60978e-22
5.89811e-22
9.33096e-22
1.44013e-21
2.18029e-21
3.25245e-21
4.77835e-21
6.87683e-21
9.6632e-21
1.34152e-20
1.88211e-20
2.67824e-20
3.71462e-20
4.70825e-20
5.14842e-20
4.74657e-20
4.10406e-20
4.94053e-20
9.28779e-20
1.77648e-19
2.80832e-19
3.50556e-19
3.26502e-19
1.70962e-19
-1.06492e-19
-4.45113e-19
-7.51228e-19
-9.28475e-19
-9.07995e-19
-6.69709e-19
-2.54435e-19
2.37913e-19
6.65736e-19
8.87072e-19
8.13754e-19
4.62554e-19
-3.05651e-20
-4.4565e-19
-5.62373e-19
-2.53971e-19
4.47556e-19
1.35442e-18
2.18744e-18
2.68652e-18
2.70203e-18
2.24367e-18
1.45485e-18
5.4032e-19
-3.21146e-19
-1.03556e-18
-1.6026e-18
-2.07457e-18
-2.49516e-18
-2.84692e-18
-3.03854e-18
-2.93435e-18
-2.41257e-18
-1.43355e-18
-8.01508e-20
1.43542e-18
2.80859e-18
3.71902e-18
3.91217e-18
3.28071e-18
1.90836e-18
6.76755e-20
-1.82441e-18
-3.30035e-18
-3.93278e-18
-3.43427e-18
-1.72295e-18
1.05891e-18
4.56263e-18
8.29249e-18
1.16924e-17
1.42282e-17
1.54616e-17
1.51315e-17
1.31603e-17
9.65936e-18
4.93673e-18
-5.85052e-19
-6.41043e-18
-1.20446e-17
-1.70598e-17
-2.11408e-17
-2.41087e-17
-2.59105e-17
-2.66239e-17
-2.64037e-17
-2.54473e-17
-2.39835e-17
-2.21922e-17
-2.04168e-17
-1.75494e-17
-2.11138e-17
8.77558e-18
-1.0424e-16
3.65384e-16
-2.72686e-31
-2.67758e-31
-2.5719e-31
-2.39372e-31
-2.19239e-31
-2.10128e-31
-2.24948e-31
-2.65491e-31
-3.19264e-31
-3.65059e-31
-3.82193e-31
-3.5658e-31
-3.09977e-31
-3.32935e-31
-5.76785e-31
-1.08995e-30
-1.30084e-30
1.01826e-30
1.11256e-29
3.8107e-29
9.25048e-29
1.75879e-28
2.54667e-28
2.0881e-28
-2.62647e-28
-1.80508e-27
-5.66666e-27
-1.41309e-26
-3.10776e-26
-6.25439e-26
-1.17199e-25
-2.06225e-25
-3.42482e-25
-5.37725e-25
-7.97321e-25
-1.10982e-24
-1.4314e-24
-1.66016e-24
-1.59697e-24
-8.90463e-25
1.05397e-24
5.18656e-24
1.30081e-23
2.67665e-23
4.97981e-23
8.68278e-23
1.44479e-22
2.317e-22
3.60525e-22
5.46693e-22
8.10696e-22
1.1787e-21
1.68392e-21
2.3664e-21
3.274e-21
4.46316e-21
6.00327e-21
7.95877e-21
1.03235e-20
1.29466e-20
1.56081e-20
1.83175e-20
2.14206e-20
2.46753e-20
2.47336e-20
1.28387e-20
-2.32301e-20
-8.96405e-20
-1.74159e-19
-2.42296e-19
-2.52802e-19
-1.86689e-19
-7.20566e-20
1.8874e-20
1.57113e-21
-1.75513e-19
-5.03649e-19
-9.1921e-19
-1.33722e-18
-1.68983e-18
-1.94917e-18
-2.13068e-18
-2.2813e-18
-2.46574e-18
-2.74005e-18
-3.12083e-18
-3.54095e-18
-3.83176e-18
-3.74165e-18
-3.01936e-18
-1.52545e-18
6.64548e-19
3.23326e-18
5.68559e-18
7.50472e-18
8.319e-18
8.03024e-18
6.82575e-18
5.09163e-18
3.25524e-18
1.63497e-18
3.57271e-19
-6.33334e-19
-1.48659e-18
-2.33191e-18
-3.19463e-18
-3.97348e-18
-4.48496e-18
-4.55735e-18
-4.11914e-18
-3.26626e-18
-2.26772e-18
-1.5027e-18
-1.36683e-18
-2.13822e-18
-3.87734e-18
-6.3733e-18
-9.1487e-18
-1.15479e-17
-1.28488e-17
-1.24213e-17
-9.86632e-18
-5.11239e-18
1.53092e-18
9.40471e-18
1.75901e-17
2.50374e-17
3.0725e-17
3.38391e-17
3.38715e-17
3.06901e-17
2.45909e-17
1.61948e-17
6.37738e-18
-3.87677e-18
-1.36232e-17
-2.20604e-17
-2.86321e-17
-3.30479e-17
-3.52909e-17
-3.55647e-17
-3.4219e-17
-3.16951e-17
-2.84823e-17
-2.49317e-17
-2.11623e-17
-2.12152e-17
2.8598e-18
-9.33868e-17
3.5151e-16
-2.94247e-31
-2.87463e-31
-2.74374e-31
-2.52234e-31
-2.26333e-31
-2.14484e-31
-2.3162e-31
-2.79196e-31
-3.41157e-31
-3.93214e-31
-4.19678e-31
-4.25743e-31
-4.61417e-31
-6.03968e-31
-7.93941e-31
-3.95766e-31
2.55619e-30
1.20126e-29
3.29831e-29
6.58285e-29
9.04e-29
3.27998e-29
-2.93553e-28
-1.27218e-27
-3.59931e-27
-8.43279e-27
-1.75356e-26
-3.33674e-26
-5.88488e-26
-9.63488e-26
-1.45382e-25
-1.98551e-25
-2.34398e-25
-2.06236e-25
-2.56675e-26
4.632e-25
1.51578e-24
3.53861e-24
7.15873e-24
1.33156e-23
2.34068e-23
3.94351e-23
6.42644e-23
1.01782e-22
1.57209e-22
2.37183e-22
3.49961e-22
5.05207e-22
7.1381e-22
9.86892e-22
1.33447e-21
1.76283e-21
2.27038e-21
2.84104e-21
3.4317e-21
3.95445e-21
4.25298e-21
4.09223e-21
3.12669e-21
7.41498e-22
-4.4327e-21
-1.48018e-20
-3.26984e-20
-5.75346e-20
-8.54024e-20
-1.15924e-19
-1.64576e-19
-2.65833e-19
-4.54135e-19
-7.27337e-19
-1.02165e-18
-1.2257e-18
-1.23722e-18
-1.02525e-18
-6.59791e-19
-2.85422e-19
-6.57484e-20
-1.31568e-19
-5.60957e-19
-1.38212e-18
-2.57501e-18
-4.06432e-18
-5.70576e-18
-7.29999e-18
-8.62382e-18
-9.48298e-18
-9.73105e-18
-9.27028e-18
-8.02274e-18
-5.93443e-18
-3.01263e-18
5.97413e-19
4.55825e-18
8.34921e-18
1.13771e-17
1.31464e-17
1.34347e-17
1.23698e-17
1.03887e-17
8.06926e-18
5.92081e-18
4.21577e-18
2.92976e-18
1.81524e-18
5.53676e-19
-1.08161e-18
-3.11754e-18
-5.36856e-18
-7.51887e-18
-9.24665e-18
-1.03628e-17
-1.08917e-17
-1.10742e-17
-1.13078e-17
-1.19992e-17
-1.34266e-17
-1.56162e-17
-1.82717e-17
-2.07965e-17
-2.23731e-17
-2.2127e-17
-1.93161e-17
-1.35116e-17
-4.75726e-18
6.38296e-18
1.88557e-17
3.12549e-17
4.20455e-17
4.98258e-17
5.35529e-17
5.26984e-17
4.73589e-17
3.81739e-17
2.62356e-17
1.28973e-17
-4.51e-19
-1.25309e-17
-2.23719e-17
-2.93851e-17
-3.33712e-17
-3.45048e-17
-3.32272e-17
-3.01416e-17
-2.60147e-17
-2.12251e-17
-1.70273e-17
-1.42491e-17
3.38124e-18
-7.68118e-17
3.43075e-16
-3.06291e-31
-2.98223e-31
-2.84048e-31
-2.57673e-31
-2.25063e-31
-2.10031e-31
-2.28204e-31
-2.82055e-31
-3.52379e-31
-4.1745e-31
-4.75308e-31
-5.4641e-31
-6.45774e-31
-6.42764e-31
7.71813e-32
3.03977e-30
1.06053e-29
2.38551e-29
3.55923e-29
1.38298e-29
-1.28444e-28
-5.77993e-28
-1.67518e-27
-3.94446e-27
-8.05721e-27
-1.46514e-26
-2.38447e-26
-3.40647e-26
-3.97028e-26
-2.69237e-26
3.34885e-26
1.95673e-25
5.53845e-25
1.26131e-24
2.555e-24
4.78713e-24
8.45691e-24
1.42591e-23
2.31359e-23
3.63345e-23
5.54883e-23
8.26351e-23
1.20248e-22
1.71016e-22
2.37552e-22
3.21633e-22
4.23075e-22
5.37884e-22
6.55334e-22
7.53775e-22
7.94092e-22
7.11025e-22
3.99545e-22
-2.98471e-22
-1.62438e-21
-3.94329e-21
-7.80963e-21
-1.39228e-20
-2.29829e-20
-3.58101e-20
-5.46051e-20
-8.42936e-20
-1.30339e-19
-1.90233e-19
-2.45696e-19
-2.70282e-19
-2.60857e-19
-2.737e-19
-4.23504e-19
-8.17941e-19
-1.45401e-18
-2.15511e-18
-2.61495e-18
-2.54337e-18
-1.83197e-18
-6.37454e-19
6.56724e-19
1.57213e-18
1.6821e-18
7.20811e-19
-1.35475e-18
-4.3456e-18
-7.81731e-18
-1.11697e-17
-1.37626e-17
-1.50942e-17
-1.4939e-17
-1.33939e-17
-1.07887e-17
-7.52897e-18
-3.94878e-18
-2.56355e-19
3.41103e-18
6.89027e-18
9.91986e-18
1.21722e-17
1.33721e-17
1.34409e-17
1.25734e-17
1.11899e-17
9.76934e-18
8.64481e-18
7.84908e-18
7.10462e-18
5.94043e-18
3.89783e-18
7.30081e-19
-3.48217e-18
-8.33941e-18
-1.32379e-17
-1.75608e-17
-2.08493e-17
-2.29287e-17
-2.39463e-17
-2.42897e-17
-2.44568e-17
-2.48823e-17
-2.57653e-17
-2.69585e-17
-2.79433e-17
-2.79052e-17
-2.59098e-17
-2.1134e-17
-1.31236e-17
-1.96351e-18
1.16256e-17
2.63576e-17
4.05958e-17
5.26188e-17
6.09626e-17
6.46522e-17
6.33626e-17
5.74242e-17
4.77452e-17
3.56406e-17
2.25863e-17
1.0067e-17
-6.87976e-19
-8.84804e-18
-1.39754e-17
-1.60961e-17
-1.55937e-17
-1.30543e-17
-9.35416e-18
-4.79268e-18
-1.52733e-18
2.54031e-18
1.27034e-17
-5.29012e-17
3.40849e-16
-3.0977e-31
-3.00022e-31
-2.8576e-31
-2.55835e-31
-2.17033e-31
-2.00018e-31
-2.17686e-31
-2.77175e-31
-3.5927e-31
-4.51088e-31
-5.56704e-31
-6.59951e-31
-6.03632e-31
1.45334e-31
2.69721e-30
8.21424e-30
1.51587e-29
1.21361e-29
-3.54247e-29
-2.05448e-28
-6.3902e-28
-1.53787e-27
-3.09909e-27
-5.31107e-27
-7.48082e-27
-7.30686e-27
7.57558e-28
2.86623e-26
9.98047e-26
2.56192e-25
5.6916e-25
1.15075e-24
2.16972e-24
3.86495e-24
6.55642e-24
1.06454e-23
1.65962e-23
2.48996e-23
3.59896e-23
5.01126e-23
6.7086e-23
8.59137e-23
1.0409e-22
1.16601e-22
1.14291e-22
8.18063e-23
-5.69759e-24
-1.86218e-22
-5.17279e-22
-1.08241e-21
-2.0023e-21
-3.44565e-21
-5.64764e-21
-8.9186e-21
-1.36712e-20
-2.04495e-20
-2.999e-20
-4.31e-20
-6.03161e-20
-8.16699e-20
-1.07547e-19
-1.40178e-19
-1.83071e-19
-2.34326e-19
-2.73528e-19
-2.54966e-19
-1.31356e-19
8.24247e-20
2.50628e-19
1.40195e-19
-4.34029e-19
-1.42494e-18
-2.46888e-18
-3.01369e-18
-2.60003e-18
-1.14096e-18
9.79578e-19
3.03555e-18
4.23226e-18
3.98214e-18
2.07744e-18
-1.25271e-18
-5.38769e-18
-9.43908e-18
-1.2471e-17
-1.37735e-17
-1.31253e-17
-1.08909e-17
-7.9001e-18
-5.10608e-18
-3.20301e-18
-2.35491e-18
-2.20603e-18
-2.09876e-18
-1.44628e-18
8.32396e-21
2.10432e-18