/*--------------------------------*- C++ -*----------------------------------*\
| =========                 |                                                 |
| \\      /  F ield         | OpenFOAM: The Open Source CFD Toolbox           |
|  \\    /   O peration     | Version:  v2012                                 |
|   \\  /    A nd           | Website:  www.openfoam.com                      |
|    \\/     M anipulation  |                                                 |
\*---------------------------------------------------------------------------*/
FoamFile
{
    version     2.0;
    format      ascii;
    class       volScalarField;
    location    "0.08";
    object      ddt0(rho);
}
// * * * * * * * * * * * * * * * * * * * * * * * * * * * * * * * * * * * * * //

dimensions      [1 -3 -1 0 0 0 0];


internalField   nonuniform List<scalar> 
18000
(
0.00311117
0.0199844
0.0291652
0.04186
0.0487061
0.0531786
0.0551835
0.0516228
0.0427403
0.0288439
0.0104865
-0.0101312
-0.0310847
-0.0510055
-0.0689366
-0.0841812
-0.0965884
-0.105982
-0.112492
-0.114673
-0.115364
-0.112966
-0.106759
-0.0969562
-0.0840509
-0.0686821
-0.0515354
-0.0332531
-0.0144906
0.00416715
0.0221118
0.0385879
0.0529284
0.0644131
0.0727636
0.0777618
0.0796417
0.0786461
0.0750982
0.0695743
0.0625025
0.0540704
0.044721
0.0347606
0.024677
0.0148493
0.00563249
-0.00268229
-0.0099171
-0.0159402
-0.0207487
-0.0243733
-0.026913
-0.0284274
-0.0288482
-0.0281892
-0.0269034
-0.0246899
-0.021603
-0.0179684
-0.0140185
-0.00994076
-0.00584816
-0.00201244
0.00145061
0.00434496
0.00667638
0.00836607
0.00949963
0.0100546
0.010157
0.0098771
0.00936447
0.00869349
0.00779078
0.00675017
0.00573042
0.00462847
0.00345106
0.00219055
0.00086352
-0.000494392
-0.00176768
-0.00293246
-0.00392522
-0.0047379
-0.00531333
-0.0056506
-0.00576977
-0.00571512
-0.00547536
-0.00506767
-0.00452883
-0.00378685
-0.00297636
-0.00210843
-0.00134947
-0.000650141
6.62652e-05
0.000852923
0.00158793
0.00227197
0.002874
0.00340196
0.00389216
0.0043335
0.00478833
0.00514368
0.00531365
0.00524623
0.0049347
0.00448408
0.00401289
0.00360833
0.003278
0.00292175
0.00250435
0.00198005
0.00138073
0.000712389
0.000185669
-0.000232767
-0.000530646
-0.000735128
-0.00101358
-0.00130846
-0.00168149
-0.00196037
-0.00211021
-0.00214944
-0.00221798
-0.00227661
-0.00240482
-0.00244281
-0.00247801
-0.00255142
-0.00258465
-0.00258649
-0.00252907
-0.00231338
-0.00203825
-0.00176323
-0.00204119
-0.00221118
-0.00200787
-0.00134562
-0.00201634
-0.00134339
-0.000484575
-0.000125761
0.00248881
0.0195034
0.0283769
0.0397366
0.0468509
0.0509972
0.052358
0.0484949
0.0396714
0.0262637
0.00915505
-0.0099938
-0.0296625
-0.0485279
-0.0655913
-0.0801624
-0.0920802
-0.101063
-0.107197
-0.110359
-0.110284
-0.106871
-0.100578
-0.0912479
-0.0791123
-0.0646657
-0.048489
-0.0311636
-0.0132946
0.00448641
0.0215066
0.037009
0.0504157
0.0611091
0.0689136
0.0736209
0.0754509
0.0746096
0.0715179
0.0662113
0.0594147
0.051321
0.0423901
0.0329293
0.0233606
0.0140271
0.00525899
-0.002658
-0.00955932
-0.0153271
-0.0199614
-0.0234669
-0.0259026
-0.0272973
-0.0276772
-0.0270371
-0.0255572
-0.0232616
-0.02042
-0.0170641
-0.0132963
-0.00937041
-0.00547252
-0.00187267
0.0013642
0.00407077
0.00625584
0.0078268
0.00887203
0.00937749
0.00949304
0.00921594
0.00871727
0.00795754
0.00721303
0.00630464
0.00528333
0.00426165
0.00320827
0.00206378
0.000851415
-0.000365014
-0.00150304
-0.00255867
-0.00348391
-0.00427494
-0.00486322
-0.00522595
-0.00534744
-0.00528813
-0.00502521
-0.00463887
-0.00415926
-0.00357188
-0.00293455
-0.00227061
-0.00161405
-0.000981907
-0.000254417
0.000503137
0.00118858
0.00184375
0.00244847
0.00297524
0.00341449
0.00371674
0.00397223
0.00417817
0.00434737
0.00442924
0.00436415
0.00416934
0.00387793
0.00354779
0.00318916
0.00277015
0.00229076
0.00174507
0.00116964
0.000611487
0.000207765
-0.000119345
-0.000392619
-0.0006568
-0.000995243
-0.00131044
-0.00165632
-0.00189464
-0.00205186
-0.00213834
-0.00223223
-0.00228293
-0.0024411
-0.0024337
-0.00234975
-0.00233907
-0.00239963
-0.00257486
-0.00266027
-0.00275249
-0.00263815
-0.0026905
-0.00350312
-0.00364796
-0.00309599
-0.00221433
-0.00210879
-0.00152934
-0.000822173
-0.000627591
0.00206061
0.0186285
0.0269983
0.0369558
0.0436969
0.047625
0.0478443
0.043644
0.0353326
0.023365
0.00847295
-0.00840651
-0.0261862
-0.0437129
-0.0599597
-0.0741001
-0.0857409
-0.0943797
-0.100172
-0.103835
-0.102635
-0.0988148
-0.0927212
-0.084042
-0.0728718
-0.0595833
-0.0446087
-0.0284728
-0.0117773
0.00476012
0.0204363
0.0345637
0.0467087
0.0563828
0.0635226
0.0679153
0.0697477
0.0691473
0.0664422
0.061709
0.0554638
0.0479323
0.0396087
0.030795
0.0218688
0.0131593
0.00497255
-0.00242393
-0.00889585
-0.014347
-0.0187675
-0.0221232
-0.0244302
-0.0256951
-0.0260285
-0.0253451
-0.0237081
-0.0215483
-0.0189208
-0.0157787
-0.0122115
-0.00852766
-0.00492452
-0.00163285
0.001331
0.00380598
0.00579791
0.00720501
0.00812741
0.00856057
0.0086388
0.00838703
0.00790619
0.00724716
0.00645964
0.00566351
0.00476044
0.00382455
0.0028628
0.00184429
0.000796218
-0.000252013
-0.00127412
-0.00222378
-0.00304007
-0.00373278
-0.00427061
-0.00465185
-0.00482502
-0.00481377
-0.00454251
-0.00414443
-0.00366357
-0.00319111
-0.00271066
-0.00225322
-0.00170177
-0.00114623
-0.000438912
0.000157933
0.000675848
0.00120941
0.00178624
0.00236637
0.00289369
0.00322857
0.00337824
0.0033833
0.00336341
0.00338978
0.0034384
0.00347071
0.00341653
0.00325044
0.00299545
0.00264193
0.0022026
0.00166782
0.0011008
0.000591508
0.000223877
-3.4514e-05
-0.000214388
-0.000395328
-0.000651466
-0.000929835
-0.00124533
-0.00146878
-0.00164806
-0.00179052
-0.00194148
-0.00206471
-0.00223876
-0.00226336
-0.00230312
-0.00237803
-0.0024059
-0.00242806
-0.00232312
-0.00216881
-0.00185283
-0.00157468
-0.00121908
-0.0014494
-0.00201643
-0.00193606
-0.00146689
-0.00109109
-0.000822838
-0.000636337
0.00102177
0.0169152
0.024259
0.0329625
0.039207
0.0427162
0.04217
0.0377809
0.0304326
0.0202329
0.00789313
-0.00627714
-0.0215322
-0.0370736
-0.052006
-0.0654127
-0.0766681
-0.0850299
-0.0904356
-0.0933962
-0.0927628
-0.0889538
-0.082872
-0.0747523
-0.064698
-0.052856
-0.0394212
-0.0248852
-0.00986967
0.00486992
0.0186935
0.0310308
0.0415754
0.0499516
0.0562131
0.0601532
0.0619417
0.0616301
0.0594047
0.0554128
0.0500366
0.0433761
0.0359325
0.02801
0.0199643
0.0121176
0.00473008
-0.00197138
-0.00788501
-0.0129181
-0.0170355
-0.0201695
-0.0223113
-0.0234472
-0.0236238
-0.0230931
-0.0215105
-0.0194397
-0.0169202
-0.0139659
-0.010724
-0.00744917
-0.00425025
-0.00132017
0.00132206
0.00349766
0.00522974
0.00642364
0.00719216
0.00753268
0.00756525
0.00732383
0.00687454
0.0063061
0.005554
0.00484275
0.00409719
0.00326065
0.00240606
0.00157467
0.000757689
-0.000113925
-0.00102801
-0.00188033
-0.00257684
-0.00311485
-0.00351092
-0.00383015
-0.00403344
-0.00410409
-0.00393581
-0.00363769
-0.00326894
-0.00294474
-0.00260929
-0.002266
-0.0017574
-0.00120302
-0.000576293
-0.000205624
0.000146136
0.000590929
0.00116194
0.00175886
0.00234697
0.00280645
0.00307373
0.00310859
0.00298391
0.00286736
0.00283788
0.00289323
0.002896
0.00274262
0.00251187
0.00220404
0.00185879
0.00145892
0.00108114
0.000745426
0.000413143
8.81437e-05
-0.000155144
-0.000302526
-0.000455523
-0.000658637
-0.000927926
-0.00112162
-0.00128983
-0.00147146
-0.00166992
-0.00186315
-0.00208115
-0.00213682
-0.00222643
-0.00230887
-0.00233292
-0.00235052
-0.00228778
-0.00213681
-0.00191599
-0.0016233
-0.000850233
0.000987383
0.00168439
0.000290659
-0.000297898
-0.000779056
-0.000858485
-0.000736328
-0.000435823
0.0144283
0.0207055
0.0281244
0.0335748
0.0361921
0.0354331
0.0312932
0.0251539
0.0168234
0.00711815
-0.00422785
-0.0166687
-0.0298198
-0.0429947
-0.05525
-0.0658124
-0.0737552
-0.0788528
-0.0810647
-0.0808294
-0.077517
-0.0718015
-0.0643454
-0.0554389
-0.0451003
-0.0333711
-0.0207501
-0.00780127
0.00478354
0.0164823
0.0268355
0.035621
0.0425526
0.0477916
0.0511504
0.052806
0.052761
0.0511037
0.0478987
0.043568
0.0380014
0.0316322
0.0247813
0.0177802
0.0109467
0.0044836
-0.00142654
-0.00669698
-0.0112205
-0.0149394
-0.0177737
-0.0197072
-0.0206984
-0.0208304
-0.0202765
-0.0189824
-0.0170431
-0.0145997
-0.0118708
-0.00904771
-0.00625175
-0.00348606
-0.000935529
0.00135522
0.00319381
0.00463624
0.00559897
0.00620156
0.00643725
0.00641482
0.00616701
0.00575233
0.0052061
0.00461613
0.00395693
0.00332242
0.0026042
0.0019204
0.00129543
0.000680312
-2.5684e-05
-0.000767847
-0.00149428
-0.0021136
-0.00258407
-0.00287592
-0.00307034
-0.00317464
-0.0032309
-0.00318314
-0.00304055
-0.00283636
-0.00262323
-0.00238157
-0.00212462
-0.00172517
-0.00125247
-0.000787017
-0.000505507
-0.00016279
0.000270495
0.000765946
0.00123109
0.0017442
0.0022768
0.002746
0.00300038
0.00296773
0.00277297
0.00256957
0.00247502
0.00237683
0.00219443
0.00200304
0.00174261
0.00144676
0.00112482
0.000915794
0.000809798
0.000647862
0.000341206
9.9412e-06
-0.000219999
-0.000399654
-0.000549632
-0.000746671
-0.000879856
-0.00100279
-0.00116469
-0.00133585
-0.0015609
-0.00180814
-0.0019232
-0.0020697
-0.00212129
-0.00210387
-0.00204363
-0.00197226
-0.00177277
-0.0017687
-0.00168115
-0.0017125
-0.00153847
-0.00159223
-0.00144177
-0.000590566
-0.000411211
-0.000550972
-0.000303494
-0.00120713
0.0114448
0.0166424
0.022825
0.0273641
0.0290513
0.028134
0.0245039
0.0195483
0.0130932
0.00602406
-0.00254274
-0.0121562
-0.0227377
-0.0337735
-0.0443685
-0.0537571
-0.0609684
-0.0657093
-0.0676601
-0.0674292
-0.0648884
-0.0600663
-0.0535028
-0.0456909
-0.0367737
-0.0268565
-0.0164096
-0.00579119
0.00443717
0.0138788
0.0221761
0.0291655
0.0346215
0.0387791
0.041468
0.042892
0.0430447
0.0419283
0.0399129
0.0362732
0.031935
0.026812
0.021178
0.0153486
0.00963193
0.00417084
-0.000879544
-0.00542834
-0.00935141
-0.0125825
-0.0150439
-0.0167216
-0.0175919
-0.0176327
-0.0171069
-0.0161473
-0.0143812
-0.0121098
-0.00971712
-0.00734961
-0.00502012
-0.00268824
-0.000545613
0.00136223
0.00284817
0.00399871
0.00473363
0.00517354
0.00530596
0.00522936
0.00497362
0.00458627
0.00410517
0.00359947
0.00301775
0.00249414
0.00195325
0.00148593
0.000984473
0.000512253
2.36841e-05
-0.000415868
-0.000903958
-0.00141344
-0.00190849
-0.0022568
-0.00243871
-0.00243608
-0.00240898
-0.00240805
-0.00236549
-0.00229541
-0.00214016
-0.00193075
-0.00173246
-0.0014906
-0.00124657
-0.000997735
-0.000695988
-0.000266222
0.000144476
0.000411673
0.000605001
0.000933703
0.00140556
0.00192353
0.00234237
0.00254136
0.00249416
0.00226981
0.00203424
0.00177749
0.00155592
0.00143537
0.00128533
0.00110675
0.000845823
0.000647004
0.000552274
0.000514879
0.000425006
0.000245178
-3.26619e-05
-0.000339239
-0.000491368
-0.000618618
-0.000685597
-0.000801755
-0.000978244
-0.00112208
-0.00134293
-0.00155152
-0.00165895
-0.00181576
-0.00184616
-0.00185118
-0.00178379
-0.00179098
-0.00167199
-0.00169826
-0.00172859
-0.00150862
-0.00111509
-0.00125859
-0.000988585
-3.86737e-05
0.000439688
-0.000193137
-5.3709e-05
-0.00112133
0.00861758
0.0126772
0.0175612
0.021079
0.0218504
0.0208258
0.0178178
0.0139308
0.00927334
0.00472817
-0.00120623
-0.00812574
-0.0161026
-0.0247548
-0.0333188
-0.041155
-0.0473497
-0.051656
-0.0535643
-0.0534212
-0.0515556
-0.0478635
-0.0424514
-0.0357798
-0.0282847
-0.0202812
-0.0121403
-0.00395499
0.00384571
0.0109958
0.0172485
0.022488
0.0265207
0.029615
0.0316049
0.0327256
0.0329952
0.032346
0.0310857
0.0284777
0.0253908
0.0215923
0.0172707
0.0126974
0.00815243
0.00373514
-0.000398914
-0.00415009
-0.0073896
-0.0100565
-0.012084
-0.0134674
-0.0142561
-0.0141853
-0.0137965
-0.0130185
-0.0115079
-0.00961231
-0.00765
-0.00570849
-0.0037988
-0.001902
-0.000199426
0.00130318
0.00243788
0.00330946
0.00383096
0.00412019
0.00415961
0.00403755
0.0037823
0.00342561
0.00300814
0.00257872
0.00211077
0.0017033
0.00137942
0.00107899
0.000640084
0.000307681
5.24364e-05
-7.26972e-05
-0.000263709
-0.000567215
-0.000993918
-0.00140583
-0.00168872
-0.00172828
-0.00169607
-0.00166766
-0.00162087
-0.00163087
-0.00153575
-0.00138987
-0.00120269
-0.00102623
-0.000959687
-0.000917421
-0.000717412
-0.000331637
-2.7099e-05
4.89133e-05
8.39101e-05
0.00027118
0.000612534
0.000989023
0.00134233
0.00162305
0.00175151
0.00166379
0.00145578
0.00118898
0.000930686
0.000834667
0.000762446
0.000757698
0.000638094
0.00046205
0.000176945
3.1703e-05
0.000144825
0.00029663
0.000175359
-0.000130939
-0.000303535
-0.000433202
-0.00046482
-0.000608631
-0.000856918
-0.00105592
-0.0013041
-0.00144263
-0.00148163
-0.00159923
-0.00161167
-0.00165187
-0.00156136
-0.00154085
-0.00136792
-0.00139442
-0.00143483
-0.00112543
-0.000658836
-0.000786601
-0.0010304
-0.000638524
-0.000261628
-0.000743994
-0.000110436
-0.00070084
0.00602534
0.00908803
0.0127555
0.0151028
0.0148418
0.0138205
0.0114441
0.00872445
0.00592476
0.00369834
9.99117e-05
-0.00441208
-0.00991314
-0.0161356
-0.0225052
-0.0285625
-0.03352
-0.0372031
-0.0391602
-0.0392743
-0.0379661
-0.0353892
-0.0312831
-0.025936
-0.0199961
-0.0139274
-0.00802941
-0.00223072
0.00315667
0.00802927
0.0122743
0.0158267
0.018512
0.0206026
0.0219151
0.0227027
0.0230196
0.0227639
0.0219207
0.0205484
0.0186109
0.0161163
0.0131504
0.00986836
0.00650413
0.00314398
-3.25686e-05
-0.00292575
-0.00541631
-0.00745717
-0.00900555
-0.0100735
-0.0105375
-0.0106769
-0.0104254
-0.00967357
-0.00853252
-0.00718153
-0.00567828
-0.0041134
-0.00259682
-0.00115162
8.66906e-05
0.00117664
0.00197027
0.00257831
0.00290165
0.00305436
0.00301393
0.00285712
0.00261306
0.00229632
0.00198797
0.00161863
0.00130044
0.00102614
0.000872566
0.000651479
0.000406159
0.00021105
5.57323e-05
4.81125e-05
5.5526e-05
-1.27736e-05
-0.000196719
-0.000469006
-0.000737514
-0.000871848
-0.000937564
-0.000890806
-0.000851348
-0.000886388
-0.000861398
-0.000864074
-0.000755014
-0.000638443
-0.000589161
-0.000589181
-0.000496409
-0.00032968
-0.000255612
-0.00020292
-0.000120221
-2.17505e-05
0.000173331
0.000390478
0.000611121
0.00076395
0.000868037
0.000844772
0.000735138
0.000614248
0.000419469
0.000343223
0.000265995
0.000335824
0.000384663
0.000463206
0.000184162
-9.79102e-05
-0.000107228
7.3104e-05
0.000173399
0.000120003
-1.677e-05
-0.000242824
-0.000300127
-0.000451776
-0.000742233
-0.00102745
-0.00132592
-0.00139884
-0.00136432
-0.00142748
-0.00140126
-0.00142892
-0.00132709
-0.00132108
-0.00119176
-0.00131012
-0.00135538
-0.00105849
-0.000642926
-0.000581167
-0.000783682
-0.000598934
-0.000242702
-0.000837602
-0.000279909
-0.000222822
0.00342966
0.00584395
0.00829355
0.00925528
0.0085353
0.00675075
0.00506947
0.00391443
0.00324882
0.0031804
0.00164712
-0.00073354
-0.00396149
-0.00787694
-0.0120893
-0.0163125
-0.019937
-0.0226456
-0.0248618
-0.0252802
-0.024561
-0.0229367
-0.020117
-0.016338
-0.0121507
-0.00797386
-0.0041581
-0.000613696
0.00245413
0.00512274
0.00742478
0.00935735
0.0107732
0.0119396
0.0126345
0.0131044
0.0134303
0.013486
0.0133098
0.0127289
0.0118412
0.0105634
0.00892297
0.00691322
0.00471163
0.00240799
0.000212317
-0.00178528
-0.0034875
-0.00486776
-0.00591796
-0.00664781
-0.00664658
-0.00717176
-0.00700258
-0.00630252
-0.00557326
-0.00478033
-0.00374133
-0.00255732
-0.00144209
-0.000455005
0.000322126
0.00100977
0.00147809
0.00183703
0.00197502
0.00200368
0.00189542
0.00171351
0.00148954
0.00122177
0.00101216
0.000743685
0.000591893
0.000462022
0.000370195
0.000268417
0.000369158
0.000243639
5.86267e-05
-0.000103555
-8.78093e-05
2.27973e-05
0.000152333
0.000159678
9.28764e-05
9.87605e-06
-7.93212e-05
-4.46484e-05
-0.000120846
-0.000111495
-0.000160439
-0.000258592
-0.000353932
-0.000491567
-0.000548349
-0.000436222
-0.000216665
-0.00020759
-0.000334512
-0.000230365
-0.000115111
-0.00017227
-0.000178708
-8.36969e-05
0.000112274
0.000175856
0.00017126
9.49425e-05
2.3191e-06
-1.3006e-05
6.21446e-05
0.000111185
5.27706e-05
3.97913e-05
8.22797e-05
0.000402134
0.000442028
0.000358126
3.79631e-05
-0.000218546
-0.000113652
0.000146813
0.000125239
-0.000170755
-0.000312497
-0.000458461
-0.000700052
-0.000998077
-0.00131682
-0.00133549
-0.00125427
-0.00128491
-0.00124815
-0.00126768
-0.00117659
-0.00119432
-0.00109463
-0.00125681
-0.00123555
-0.000935345
-0.000604056
-0.000453928
-0.000425091
-0.000278142
-9.80189e-05
-0.000851396
-0.000284592
-0.000626601
0.00125874
0.00286643
0.00403509
0.0032644
0.00152407
-0.000679908
-0.00155675
-0.000895782
0.000671234
0.00266087
0.00315798
0.00286213
0.00181676
6.95719e-05
-0.00212517
-0.00461327
-0.00697393
-0.00910564
-0.0110706
-0.0117556
-0.0116437
-0.0107324
-0.00908353
-0.00703005
-0.00474205
-0.0024415
-0.000595306
0.000849861
0.00176487
0.00237461
0.0028391
0.0032267
0.00343761
0.00374668
0.00388924
0.00408056
0.00440521
0.00470399
0.00508598
0.00522466
0.00528691
0.00511747
0.00470214
0.00389913
0.00282884
0.00157343
0.000362231
-0.000732264
-0.00164268
-0.0023692
-0.00292139
-0.00329987
-0.00328416
-0.00369609
-0.00351489
-0.00307107
-0.00272316
-0.00237101
-0.0017915
-0.00105216
-0.000374598
0.000169907
0.000520407
0.000830875
0.000990571
0.00111242
0.00107658
0.000991584
0.000825148
0.000627082
0.000431033
0.000219771
7.2453e-05
-3.94032e-05
-4.7924e-05
-3.65099e-05
-0.000101972
4.77311e-05
0.000288948
0.000274419
0.000223102
-0.000122374
-0.00027078
-0.000139094
0.000226742
0.000468698
0.000606659
0.00066157
0.000701339
0.000740684
0.000570924
0.000635701
0.000411307
0.000375961
0.000136245
-0.000185343
-0.000492329
-0.000401054
-0.000223142
-0.000288228
-0.000387786
-0.000230612
-0.000163979
-0.000336518
-0.000528005
-0.000608912
-0.000479308
-0.000377611
-0.000385992
-0.000453004
-0.000551561
-0.000590534
-0.000244671
-2.32746e-05
7.27314e-05
1.94005e-05
-0.000145885
-5.60095e-05
0.000175333
0.000519801
0.00020652
-0.000348425
-0.000461702
-0.000175225
-8.56198e-05
-0.00022485
-0.000400299
-0.000583242
-0.000764532
-0.000970327
-0.0012391
-0.00121878
-0.0011317
-0.00114481
-0.00111279
-0.00112171
-0.00103067
-0.0010449
-0.000970206
-0.00117975
-0.00111867
-0.000791022
-0.000553284
-0.000384398
-0.000146959
-1.28762e-05
-4.68567e-05
-0.000681909
-0.000211017
-0.00124546
-0.000413508
0.00023288
-0.000110992
-0.00269367
-0.00599144
-0.007896
-0.00778471
-0.00560734
-0.00228423
0.00150531
0.00408889
0.00599191
0.00719133
0.00758452
0.0072962
0.00637802
0.00513132
0.00337005
0.00201403
0.00109631
0.000696651
0.00103401
0.00160973
0.00198284
0.00236239
0.00275665
0.0026574
0.00213111
0.0010735
-0.000199167
-0.00143513
-0.00249472
-0.00341977
-0.00391041
-0.0042624
-0.00430254
-0.00397038
-0.00347314
-0.00262472
-0.00199265
-0.000892312
-8.18359e-05
0.000594375
0.000906641
0.00092556
0.000702153
0.000458778
0.000238809
8.82095e-05
-2.01507e-05
-8.52581e-05
-9.47653e-05
-0.00030705
-0.000292595
-5.49959e-05
-1.66233e-06
-9.49216e-06
2.81983e-06
0.000143638
0.000385877
0.000592457
0.000717103
0.000687937
0.000656421
0.000527083
0.000423816
0.000224858
3.40282e-05
-0.000184199
-0.000391252
-0.000552651
-0.000701871
-0.000757826
-0.000742858
-0.000650289
-0.000509308
-0.000451565
-6.94704e-05
-0.00010807
0.000232687
0.000614887
0.000538227
0.000243356
0.000152761
0.000447217
0.000773631
0.00100525
0.00107672
0.00120443
0.00122817
0.00121074
0.00122926
0.000763205
0.000747316
0.00050243
0.000439827
0.000171876
5.40712e-05
-0.000420875
-0.000765095
-0.000844518
-0.000765537
-0.000744755
-0.000765739
-0.00083539
-0.000980941
-0.0010175
-0.000908584
-0.000871977
-0.000838137
-0.000817065
-0.000927425
-0.000760752
-0.000494529
-0.00016222
-5.96668e-06
-0.000282214
-0.000727305
-0.00065648
-0.00014421
2.84176e-05
-7.26031e-05
-0.000326666
-0.000436379
-0.000437522
-0.00027845
-0.000329505
-0.000595945
-0.000816577
-0.000896782
-0.00107554
-0.0010766
-0.0010745
-0.00108889
-0.00103617
-0.00101294
-0.000923368
-0.000923543
-0.000844263
-0.001051
-0.000940444
-0.000581856
-0.000484624
-0.000357976
2.91123e-05
0.000178471
-3.41195e-05
-0.000527379
-5.99136e-05
-0.00177501
-0.00176242
-0.00231092
-0.0041547
-0.00835431
-0.012101
-0.0134951
-0.0124253
-0.00948786
-0.00527918
-0.000191994
0.00436231
0.00846251
0.0119171
0.0144375
0.0159802
0.0164922
0.0162787
0.0153563
0.0143302
0.013281
0.012511
0.0121626
0.01168
0.0105682
0.00916786
0.00766291
0.00564017
0.00325573
0.000384417
-0.00260439
-0.00539604
-0.00778236
-0.00975621
-0.0109879
-0.0117882
-0.0120222
-0.0116718
-0.0109982
-0.00978
-0.00784466
-0.00661782
-0.00496159
-0.00331453
-0.00198464
-0.000927646
-0.000151336
0.000529112
0.00113117
0.00169252
0.00216942
0.00257605
0.00299979
0.00268629
0.00295768
0.00315271
0.00290477
0.00258877
0.0022805
0.00199645
0.00174069
0.00147921
0.00120798
0.000837462
0.000496985
9.96201e-05
-0.000216716
-0.000569937
-0.000860045
-0.00112688
-0.00134145
-0.00146767
-0.00155413
-0.00152095
-0.00140167
-0.0012243
-0.000962816
-0.000686565
-0.000341036
-0.000556105
0.00025065
0.00102726
0.00172646
0.00161129
0.0013137
0.00113623
0.00132412
0.00153374
0.00153764
0.00152574
0.00139434
0.00165933
0.00149999
0.00109173
0.000847051
0.000528466
0.000651222
0.000765087
0.00055153
-0.000428271
-0.00107773
-0.00142659
-0.00168952
-0.00184329
-0.00167656
-0.0013833
-0.00129592
-0.0013051
-0.0012423
-0.001202
-0.00117199
-0.000955397
-0.00106652
-0.00145673
-0.00126315
-0.000759611
-0.000246763
-0.000263885
-0.00083936
-0.000913373
-0.000736404
-0.000172091
0.000508079
0.000352602
-0.000211174
-0.00047666
-0.000219046
-8.20444e-05
-0.00041335
-0.00072722
-0.000744708
-0.000848155
-0.00090047
-0.0010623
-0.00114233
-0.00107223
-0.000973856
-0.000849853
-0.000817958
-0.000716985
-0.000896977
-0.000743906
-0.000347998
-0.00037822
-0.000295433
0.000190554
0.000331083
-2.90574e-05
-0.000385157
0.0001073
-0.00172609
-0.00231634
-0.00431625
-0.00800692
-0.0138303
-0.0175115
-0.0176589
-0.0156359
-0.0122437
-0.00764454
-0.00178136
0.00437589
0.0104168
0.015945
0.0204752
0.0237681
0.0256415
0.0264684
0.0264356
0.0257064
0.0247525
0.0237379
0.0225284
0.0209668
0.0185532
0.0155607
0.0122534
0.00838902
0.0042657
-0.000280787
-0.00484281
-0.00905942
-0.0126501
-0.0155735
-0.0174779
-0.0186822
-0.0190817
-0.0187083
-0.0178642
-0.0163382
-0.0136066
-0.0120471
-0.00948697
-0.00695834
-0.00470957
-0.00267683
-0.000956618
0.0005859
0.00196055
0.00318293
0.00421975
0.00508083
0.0059115
0.00575508
0.00607515
0.00602296
0.00558968
0.0050493
0.00443048
0.00373255
0.00300596
0.00230539
0.00166605
0.000983222
0.000360251
-0.00028537
-0.000804063
-0.00130405
-0.00168725
-0.00200039
-0.00222494
-0.00232384
-0.00235506
-0.00224124
-0.00204507
-0.00176417
-0.00139933
-0.000931731
-0.000908208
-0.00049277
0.000375833
0.00125971
0.00245513
0.0029156
0.00282914
0.00231262
0.00222436
0.00226642
0.00237773
0.00215985
0.00179811
0.00187636
0.00151794
0.00164044
0.00122951
0.000754134
0.000228835
0.000316246
0.000117694
-0.000175554
-0.000623224
-0.00121562
-0.00173095
-0.00209344
-0.00213678
-0.00189153
-0.00167974
-0.00147477
-0.00143407
-0.00138656
-0.00156095
-0.00134745
-0.00118046
-0.00163151
-0.00150991
-0.00112344
-0.000522959
-9.49827e-05
-0.000196708
-0.000126866
-0.000457493
-7.02581e-05
0.000767529
0.000723225
0.00014598
-0.000194559
-9.06458e-05
0.0001115
-0.000170983
-0.000478793
-0.000567595
-0.000662977
-0.000659137
-0.000883058
-0.00107222
-0.00107674
-0.000933985
-0.000764177
-0.000693047
-0.000574092
-0.000725671
-0.000539394
-0.00010627
-0.000245915
-0.00019451
0.000348864
0.000459083
-2.0168e-06
-0.000227293
0.000246046
-0.0013272
-0.00272902
-0.00595132
-0.0113399
-0.0190691
-0.0229824
-0.0225971
-0.0191209
-0.0146923
-0.00940167
-0.00291768
0.00445673
0.0120707
0.0193778
0.0256986
0.0306209
0.0338264
0.0357009
0.0364554
0.035916
0.0352752
0.0340935
0.0320891
0.0295113
0.0258828
0.0214516
0.0164863
0.0109078
0.00517037
-0.000911766
-0.0069004
-0.0124168
-0.0171031
-0.020884
-0.0233907
-0.0249541
-0.0254988
-0.0251052
-0.0241003
-0.0222609
-0.0198492
-0.0171948
-0.0136143
-0.0102835
-0.0072229
-0.00430686
-0.0017127
0.000645251
0.00274305
0.00456483
0.00612271
0.00741107
0.00817515
0.00874134
0.0090424
0.00868863
0.0080687
0.00733372
0.00643309
0.00536268
0.00420947
0.0030925
0.00209798
0.00111963
0.000237254
-0.000634895
-0.00134289
-0.00198343
-0.00245877
-0.00281475
-0.00304594
-0.00312393
-0.00311418
-0.00293307
-0.00268488
-0.00227719
-0.00185138
-0.00126978
-0.00148037
-2.46729e-05
0.000222469
0.00113188
0.00176934
0.00295378
0.00337415
0.00336145
0.00315893
0.00307575
0.00340526
0.00330582
0.0029861
0.00222545
0.00178785
0.0022996
0.00214222
0.00171591
0.000501043
-0.000272629
-0.000748371
-2.28339e-05
4.35127e-05
-0.000306944
-0.000544459
-0.000752822
-0.00120363
-0.00158163
-0.00178312
-0.0016467
-0.00166991
-0.00157938
-0.00190402
-0.00205768
-0.00141877
-0.000976719
-0.000905116
-0.00106792
-0.00086128
-0.000212639
0.000283504
0.000534442
-7.03312e-06
5.91401e-05
0.000404844
0.000299252
0.000118257
-2.05941e-05
-7.96159e-05
2.30748e-05
-5.78347e-05
-0.000198344
-0.000415833
-0.000563523
-0.000373688
-0.000453179
-0.000695654
-0.000857382
-0.000768708
-0.000601871
-0.000506052
-0.000381337
-0.000522988
-0.000326288
0.000122857
-0.00010687
-6.22955e-05
0.000523383
0.000611095
8.14898e-05
-4.45381e-05
0.000317677
-0.00298867
-0.00433168
-0.00764277
-0.0141587
-0.0236215
-0.0278328
-0.0278912
-0.0233227
-0.017534
-0.0111327
-0.00379323
0.00461464
0.0135006
0.0223097
0.0301726
0.0365477
0.0410302
0.0439268
0.0451237
0.0450148
0.0447654
0.0433728
0.0407875
0.0373575
0.0325857
0.0268294
0.020349
0.0132009
0.00596684
-0.00150791
-0.00876236
-0.015446
-0.0211296
-0.025694
-0.0287452
-0.0306316
-0.0313086
-0.0308996
-0.0297421
-0.0276035
-0.0248115
-0.0211159
-0.0172371
-0.0133361
-0.00952242
-0.00580749
-0.00240508
0.000723705
0.00347069
0.00582721
0.00784237
0.00948553
0.0101319
0.0113085
0.0116233
0.0111792
0.0103969
0.00944608
0.00827221
0.00688372
0.00536809
0.00386045
0.00250929
0.00123649
0.000111021
-0.00096563
-0.001844
-0.00261709
-0.00318756
-0.00358719
-0.00382143
-0.00387549
-0.00383019
-0.00359406
-0.00330049
-0.00277441
-0.00233778
-0.00169169
-0.00155997
5.40717e-05
-0.000525563
0.000283936
-0.00020548
0.00150022
0.00226843
0.00338923
0.00335862
0.00358412
0.00366495
0.00402821
0.00407294
0.00295344
0.00256165
0.00263516
0.00264792
0.00259216
0.00212212
0.000653708
-0.000391097
-0.000351382
-0.000147726
7.09845e-05
0.000167353
0.000179318
-0.000275349
-0.00096862
-0.00161873
-0.00186666
-0.00200753
-0.00190625
-0.00189833
-0.00240571
-0.00198263
-0.000720955
-0.000572165
-0.00124668
-0.00148523
-0.000951748
-3.29244e-05
0.000205982
-0.000135665
1.98558e-05
1.32369e-05
-0.000115635
7.60719e-05
5.08441e-05
-0.000132286
-0.000225425
-0.000120295
-5.32075e-05
-0.000244938
-0.000415587
-0.000115451
-7.27622e-05
-0.000284161
-0.000537106
-0.000513208
-0.000375816
-0.000269578
-0.000145473
-0.000290202
-9.85e-05
0.000344955
3.13671e-05
9.89797e-05
0.000710387
0.000778837
0.000229387
0.000171416
0.000357611
-0.00511339
-0.00674642
-0.00992234
-0.016821
-0.0268431
-0.0304719
-0.0307132
-0.0265328
-0.0205343
-0.0131748
-0.00474814
0.00469176
0.0147067
0.0248189
0.0339971
0.0416116
0.0472487
0.0511544
0.0526469
0.0533594
0.0534166
0.0517179
0.0486236
0.0444667
0.0386683
0.0317117
0.0238577
0.0152807
0.00664934
-0.00209148
-0.0104639
-0.0181708
-0.0247348
-0.0300062
-0.0335567
-0.0357448
-0.03655
-0.0361303
-0.0348227
-0.0324052
-0.0291608
-0.0242193
-0.0206074
-0.016214
-0.0116332
-0.00712852
-0.00300057
0.000800188
0.00411827
0.00696712
0.00936967
0.0113002
0.0125489
0.013643
0.0137985
0.0133773
0.0125246
0.0113768
0.00993473
0.00825231
0.00642504
0.00458788
0.00291418
0.00136284
3.19259e-06
-0.00127094
-0.00231052
-0.00320649
-0.00386579
-0.00431646
-0.00456725
-0.00460114
-0.00451712
-0.00422848
-0.00387164
-0.00326787
-0.00280961
-0.00217208
-0.00114739
-0.000614294
-0.00115568
-0.000931746
-0.00151295
-5.19597e-05
0.000791775
0.00245604
0.0027065
0.00355425
0.00286098
0.00348887
0.00350552
0.00343578
0.00308367
0.00230826
0.00166086
0.00219247
0.00307242
0.00241052
0.00112904
-0.000673757
-0.00072816
-0.000338986
-0.00077981
-0.00118516
-0.00116439
-0.00129787
-0.00175017
-0.00218318
-0.00232616
-0.00236212
-0.00166614
-0.00189885
-0.00269326
-0.00190601
-0.00146331
-0.00165485
-0.00183802
-0.00160007
-0.000504461
-0.000272187
-0.000101654
0.000228809
0.000190373
0.000207613
0.000528986
0.000388625
5.43402e-05
-0.000231348
-0.000199988
-3.84009e-05
-2.99654e-05
-0.000148832
5.9431e-05
-7.91903e-06
-0.00017717
-0.000388446
-0.000333472
-0.000175475
-4.15559e-05
9.32798e-05
-4.80014e-05
0.000139531
0.000558623
0.000175172
0.000269859
0.00090164
0.0009552
0.00043814
0.000416022
0.000420679
-0.00628818
-0.00885535
-0.0120475
-0.0196119
-0.0290115
-0.0304778
-0.0307601
-0.0283859
-0.0231171
-0.0151143
-0.00580507
0.00461498
0.0156942
0.0269584
0.037283
0.04598
0.0526529
0.0576571
0.0597965
0.0612065
0.0613239
0.0593371
0.0557012
0.0508331
0.0441059
0.0360898
0.0270251
0.0171493
0.00722016
-0.00268342
-0.0120662
-0.0206572
-0.0279611
-0.0338411
-0.0378431
-0.040322
-0.0412583
-0.0408333
-0.0393822
-0.0366974
-0.0331239
-0.0280308
-0.0240271
-0.0187446
-0.0134492
-0.00828626
-0.00354571
0.000838046
0.00468784
0.00799554
0.0107477
0.0129162
0.0146925
0.015691
0.0157384
0.0152837
0.0143829
0.0130793
0.0114013
0.00943714
0.00731781
0.00521476
0.0032844
0.00149987
-7.51986e-05
-0.00153842
-0.00273778
-0.00374891
-0.00448254
-0.00498477
-0.00526773
-0.00529853
-0.00518247
-0.00484397
-0.00441021
-0.00377136
-0.00320494
-0.00266149
-0.000881
-0.00141908
-0.000591496
-0.000904283
-0.000167641
3.94194e-05
0.0008576
0.00176378
0.00231836
0.00323158
0.00257368
0.00288783
0.00203713
0.00313692
0.00269783
0.00165832
-2.34846e-05
0.00102983
0.00139945
0.0026924
0.00161701
-5.52288e-05
-0.000256173
-0.000378352
-0.00185322
-0.00292633
-0.00265228
-0.00220521
-0.00217932
-0.00248286
-0.00249425
-0.00273208
-0.00188371
-0.001367
-0.00259895
-0.00297993
-0.00247275
-0.00124309
-0.00114793
-0.00131984
-0.000586848
-9.96137e-05
0.000741425
0.000747424
0.000489376
0.000673697
0.00105593
0.000875968
0.000498583
0.000153366
-0.000108103
3.52589e-05
0.00019417
0.000127257
0.000174467
-7.36838e-05
-0.000220203
-0.000352017
-0.000222374
-1.5715e-05