/*--------------------------------*- C++ -*----------------------------------*\
| =========                 |                                                 |
| \\      /  F ield         | OpenFOAM: The Open Source CFD Toolbox           |
|  \\    /   O peration     | Version:  v2012                                 |
|   \\  /    A nd           | Website:  www.openfoam.com                      |
|    \\/     M anipulation  |                                                 |
\*---------------------------------------------------------------------------*/
FoamFile
{
    version     2.0;
    format      ascii;
    class       volScalarField;
    location    "0.08";
    object      ddt0(rhoE);
}
// * * * * * * * * * * * * * * * * * * * * * * * * * * * * * * * * * * * * * //

dimensions      [1 -1 -3 0 0 0 0];


internalField   nonuniform List<scalar> 
18000
(
-5.9702
-1322.24
-2110.2
-3445.22
-4340.91
-5167.07
-5755.73
-5785.34
-5088.1
-3714.26
-1831.31
283.503
2384.91
4293.97
5906.89
7169.67
8103.65
8751.84
9186.74
9311.01
9404.75
9312.57
8926.49
8197.68
7130.1
5757.16
4135.37
2342.64
478.916
-1357.5
-3064.17
-4542.24
-5722.36
-6555.93
-7052.49
-7228.85
-7144.81
-6846.21
-6384.83
-5815.37
-5182.84
-4482.8
-3732.5
-2923.16
-2066.5
-1169.12
-254.551
640.044
1472.59
2193.33
2766.5
3164.21
3380.35
3417.15
3274.93
2966.82
2594.26
2135.5
1635.16
1150.16
716.373
352.454
60.5714
-151.915
-301.391
-395.729
-462.485
-513.589
-569.508
-628.901
-700.467
-778.63
-866.755
-951.189
-1014.58
-1039.83
-1043.98
-1002.91
-910.698
-764.292
-566.118
-327.484
-69.3557
197.161
455.769
695.953
900.202
1061.32
1173.37
1229.75
1222.8
1158.51
1038.57
859.294
640.924
391.789
142.574
-107.586
-354.749
-580.804
-761.611
-898.58
-986.446
-1026.71
-1017.98
-960.194
-869.021
-742.171
-590.976
-423.038
-240.595
-56.9098
115.772
262.56
378.125
474.556
546.946
594.606
613.12
606.533
560.366
499.207
415.32
311.637
211.267
106.177
8.15632
-108.002
-233.792
-353.545
-444.328
-505.777
-524.955
-544.717
-538.4
-510.661
-472.012
-416.738
-359.171
-316.606
-277.252
-218.845
-43.9802
196.127
326.29
291.715
484.524
478.058
501.308
652.575
13.3939
-1380.76
-2080.93
-3273.59
-4227.26
-5019.73
-5591.27
-5600.5
-4970.87
-3735.73
-2029.73
-99.2505
1849.15
3653.7
5209.89
6462.65
7421.88
8108.27
8591.65
8886.2
8977.3
8881.55
8580.49
7984.01
7063.44
5834.65
4344.12
2664.55
891.671
-870.867
-2515.76
-3943.49
-5090.98
-5916.46
-6433.67
-6657.09
-6640.78
-6427.39
-6066.29
-5575.32
-5013.1
-4384.2
-3704.75
-2965.73
-2175.11
-1337.44
-475.013
377.192
1179.4
1885.39
2459.83
2872.21
3110.47
3172.12
3066.94
2812.68
2456.09
2031.1
1588.05
1150.58
743.869
397.394
120.782
-77.0536
-216.028
-305.16
-369.446
-418.939
-473.237
-533.433
-609.581
-692.568
-785.671
-869.974
-939.75
-993.666
-1001.23
-968.894
-892.705
-763.814
-583.132
-363.056
-121.177
131.798
379.692
612.791
813.836
976.162
1093.06
1158.59
1160.64
1106.2
996.117
831.999
632.845
409.243
179.587
-53.6065
-291.62
-507.655
-680.757
-814.27
-901.902
-947.449
-952.236
-911.754
-834.6
-716.293
-569.492
-404.462
-230.176
-60.5823
94.0726
223.054
325.385
413.522
486.127
541.578
572.717
574.028
534.488
476.018
392.874
295.055
201.17
105.139
17.1595
-86.6965
-196.707
-305.515
-392.834
-456.474
-484.767
-527.31
-549.747
-538.094
-498.565
-429.711
-360.223
-285.927
-236.478
-141.126
22.5342
117.879
164.742
213.778
392.997
439.747
486.643
638.569
74.1868
-1323.47
-1981.68
-3024.95
-3873.75
-4598.35
-5033.06
-4961.76
-4350
-3228.83
-1710.88
22.6833
1802.97
3481.86
4950.4
6144.89
7054.57
7679.11
8094.21
8402.26
8358.64
8159.69
7797.73
7194
6309.25
5152.36
3756
2184.59
527.404
-1107.04
-2613.81
-3899.95
-4914.39
-5625.98
-6056.45
-6221.77
-6173.17
-5949.82
-5596.48
-5134.67
-4596.54
-3997.36
-3353.65
-2659.24
-1919.55
-1138.47
-337.199
453.258
1196.92
1852.92
2387.04
2767.88
2980.07
3019.31
2901.98
2661.84
2286.76
1875.57
1451.39
1031.96
637.827
306.262
45.4887
-136.918
-263.329
-341.566
-393.667
-429.216
-466.986
-511.135
-570.852
-640.792
-718.247
-790.87
-851.739
-900.223
-910.274
-883.606
-815.272
-698.62
-536.94
-340
-117.068
118.58
351.413
571.147
761.757
916.676
1029.31
1094.85
1098.99
1051.31
949.467
799.979
613.088
404.542
179.776
-46.7639
-279.726
-475.491
-633.702
-759.065
-841.613
-881.019
-883.584
-848.593
-784.5
-685.878
-558.176
-405.339
-236.647
-67.9993
88.6483
219.577
319.642
398.307
459.565
508.279
539.532
543.602
517.41
472.703
398.385
305.781
206.416
103.273
6.02569
-103.885
-208.228
-305.755
-386.637
-447.644
-480.395
-521.775
-529.769
-515.43
-474.82
-409.946
-337.574
-265.852
-212.267
-135.469
-43.2066
155.238
287.872
362.379
397.885
456.137
511.984
638.259
179.383
-1298.81
-1843.68
-2698.78
-3447.23
-4091.78
-4431.8
-4320.27
-3805.64
-2867.82
-1609.51
-142.364
1401.71
2907.45
4272.45
5422.08
6318.01
6938.54
7341.01
7588.97
7587.12
7362.79
6983.66
6422.04
5640.15
4626.46
3387.26
1979.71
488.961
-974.564
-2316.24
-3453.51
-4344.38
-4964.95
-5341.18
-5488.68
-5454
-5271.63
-4971.98
-4581.51
-4129.92
-3612.99
-3050.78
-2440.24
-1786.02
-1091.99
-376.769
335.413
1012.55
1618.52
2118.85
2481.61
2688.98
2734.62
2633.95
2417.96
2074.71
1696.87
1300.45
913.175
555.411
260.764
27.6334
-135.512
-248.05
-313.95
-353.199
-376.522
-401.083
-434.158
-482.049
-543.606
-613.057
-681.565
-744.507
-789.861
-811.426
-793.404
-736.249
-641.066
-506.829
-335.819
-134.788
78.1765
289.85
490.564
666.596
812.119
919.127
983.01
991.497
956.259
875.161
754.579
595.118
411.687
200.494
-15.4659
-230.561
-394.37
-536.311
-658.987
-746.912
-789.938
-796.514
-769.247
-716.041
-633.035
-521.93
-386.977
-236.125
-84.4225
60.8315
188.336
286.939
366.958
430.073
481.783
510.792
509.125
485.455
446.678
380.896
299.606
210.925
120.679
31.1606
-74.6449
-173.116
-261.224
-334.996
-390.948
-427.492
-478.042
-501.626
-521.325
-503.531
-436.784
-331.507
-200.867
-58.098
82.5381
308.034
287.827
120.897
257.389
311.833
438.702
498.321
573.53
260.704
-1170.5
-1628.66
-2314.59
-2935.29
-3439.66
-3703.47
-3576.59
-3164.32
-2411.76
-1416.95
-222.297
1062.86
2360.67
3578.43
4629.49
5455.17
6021.82
6376.78
6553.88
6566.11
6371.53
6003.54
5483.98
4797.93
3925.69
2856.72
1644.6
361.081
-891.704
-2035.87
-3000.13
-3748.04
-4260.73
-4565.44
-4677.46
-4639.53
-4484.9
-4234.25
-3916.83
-3541.91
-3120.18
-2647.97
-2130.68
-1573.73
-980.785
-366.459
253.061
848.836
1388.9
1839.09
2169.12
2360.18
2404.04
2310.47
2115.38
1827.84
1484.17
1111.69
760.425
447.932
196.875
-6.57881
-149.66
-246.43
-297.121
-320.981
-330.456
-339.829
-359.511
-392.37
-441.314
-499.495
-561.943
-619.759
-660.851
-688.234
-678.644
-637.39
-567.062
-459.329
-314.025
-141.985
40.7548
225.292
404.602
566.465
703.729
804.144
864.502
878.405
854.184
792.651
694.096
557.537
396.108
205.41
9.21274
-174.018
-311.648
-444.841
-567.775
-656.154
-697.194
-706.918
-691.108
-653.105
-587.34
-493.537
-377.384
-244.283
-107.511
29.0519
148.993
237.508
312.623
374.74
429.802
460.83
463.596
451.3
422.05
360.563
285.685
210.5
137.452
61.26
-37.214
-132.964
-220.348
-295.146
-340.805
-373.611
-412.93
-413.983
-422.808
-399.241
-363.75
-326.695
-311.529
-338.028
-307.925
-385.368
-561.336
-231.519
227.319
323.673
457.756
498.723
513.955
238.284
-980.211
-1330.18
-1871.43
-2365.17
-2718.82
-2917.76
-2815.47
-2506.88
-1944.28
-1218.4
-298.868
718.959
1791.73
2838.84
3765.67
4499.25
4997.94
5309.01
5451.02
5450.34
5307.52
4996.01
4538.95
3942.76
3201.03
2306.27
1306.95
248.882
-778.222
-1713.09
-2495.98
-3095.28
-3497.11
-3727.34
-3800.69
-3755.89
-3627.81
-3427.59
-3211.16
-2896.99
-2580.62
-2213.14
-1802.75
-1354.62
-871.727
-365.061
156.188
664.438
1131.84
1525.58
1818.44
1991.42
2036.82
1953.07
1785.86
1553.76
1249.91
911.114
605.042
339.48
130.548
-42.3689
-161.846
-239.725
-273.831
-282.132
-278.094
-272.078
-278.064
-295.248
-331.131
-377.101
-431.139
-483.54
-523.78
-553.334
-557.246
-536.517
-484.516
-400.636
-287.187
-153.856
-6.23871
148.89
306.507
453.667
581.4
673.318
730.59
750.44
734.46
690.67
611.304
500.105
365.92
205.718
40.2194
-110.22
-235.228
-362.879
-479.085
-553.745
-587.274
-600.198
-594.726
-566.666
-510.669
-431.377
-336.105
-228.219
-114.19
6.94654
113.419
192.824
266.696
328.409
383.783
414.47
423.673
423.215
400.117
339.491
273.355
211.574
149.441
83.7686
-5.74592
-94.5832
-178.765
-251.556
-291.093
-330.928
-370.568
-376.433
-407.846
-409.121
-408.291
-378.388
-340.393
-250.18
-98.2381
19.9183
141.206
399.301
495.861
385.434
382.692
404.262
405.6
161.535
-793.826
-1050.5
-1435.19
-1779.13
-1985.66
-2137.89
-2070.4
-1846.12
-1462.06
-994.436
-337.712
420.845
1260.03
2112.65
2885.34
3499.93
3911.22
4172.38
4297.57
4290.35
4187.91
3954.47
3582.37
3076.69
2459.99
1742.54
963.955
139.753
-652.583
-1369.69
-1966.04
-2415.31
-2708.09
-2866.17
-2902.82
-2850.91
-2748.72
-2597.23
-2446.25
-2230.25
-2016.03
-1759.4
-1461.79
-1125.42
-752.599
-353.103
68.3248
484.675
873.415
1204.36
1454.22
1605.22
1653.39
1577.69
1445.15
1249.62
991.124
705.067
452.487
230.732
60.5278
-79.271
-169.347
-224.436
-241.022
-234.398
-218.035
-197.861
-191.897
-195.327
-220.53
-255.567
-302.014
-349.503
-390.645
-422.312
-440.912
-434.953
-395.232
-338.254
-261.42
-167.836
-53.8476
73.5442
207.764
336.045
450.509
535.163
594.895
621.892
613.616
586.059
523.24
437.408
328.36
197.154
60.2993
-66.3977
-181.796
-295.866
-390.403
-445.258
-478.306
-498.93
-502.634
-481.018
-433.232
-366.373
-286.861
-199.557
-107.764
-8.75047
81.2339
151.238
224.408
284.017
338.909
368.132
385.703
392.14
367.482
309.603
256.778
201.516
141.65
85.2094
9.62693
-63.7149
-138.863
-205.314
-239.092
-284.935
-322.564
-331.672
-366.039
-352.079
-337.812
-297.395
-269.178
-208.068
-106.945
-66.3085
-32.2164
36.3991
81.5778
116.511
287.748
387.994
339.983
50.9059
-608.326
-772.099
-1023.23
-1237.33
-1310.95
-1402.31
-1339.62
-1186.39
-988.183
-772.937
-364.428
148.907
752.029
1393.11
1990.87
2470.43
2786.85
2998.73
3121.63
3128.92
3061.69
2906.5
2631.39
2229.53
1745.78
1202.79
634.363
35.2367
-527.341
-1029.63
-1442.08
-1743.57
-1929.2
-2016.15
-2016.47
-1955.43
-1875.15
-1769.66
-1665.85
-1555.6
-1437.48
-1290.5
-1108.32
-884.721
-620.604
-327.078
-6.91483
313.598
618.498
881.004
1082.92
1208.38
1243.81
1195.05
1096.46
923.876
719.848
501.87
306.423
125.395
-7.98946
-112.389
-169.406
-199.774
-199.156
-179.287
-152.944
-121.357
-106.421
-98.5353
-115.152
-140.235
-183.536
-223.492
-265.913
-300.719
-329.228
-329.631
-309.683
-278.363
-231.583
-168.946
-84.7326
16.5581
123.638
226.943
320.356
393.817
452.978
482.142
484.199
469.925
422.455
362.092
279.023
181.841
74.7227
-32.7009
-139.469
-233.848
-299.101
-341.997
-381.111
-405.415
-413.064
-396.315
-360.085
-305.355
-238.398
-164.889
-91.3888
-15.1532
57.4785
114.32
182.499
236.972
287.906
308.419
328.297
330.833
307.038
270.308
241.96
194.622
140.93
94.5696
32.0519
-23.7385
-85.8224
-142.844
-175.992
-230.377
-264.342
-274.16
-307.556
-294.261
-302.773
-294.257
-297.202
-236.775
-140.477
-118.744
-122.996
-86.9667
29.1652
100.873
179.457
280.172
247.441
-52.3801
-403.01
-514.843
-668.154
-744.768
-704.388
-653.014
-595.453
-553.366
-560.422
-575.909
-388.866
-99.6293
274.096
699.326
1113.91
1452.46
1674.11
1810.9
1966.79
1997.71
1970.44
1877.09
1690.8
1406.84
1066.72
689.197
313.59
-72.8803
-413.056
-703.781
-933.178
-1086.74
-1165.75
-1183.8
-1152.09
-1085.55
-1028.86
-968.503
-935.278
-897.542
-871.444
-827.194
-756.559
-642.306
-482.933
-292.054
-72.01
151.935
371.388
563.602
716.665
811.905
813.364
821.652
744.481
598.022
453.683
303.324
164.046
24.8445
-70.4581
-138.999
-163.331
-169.521
-152.716
-121.317
-87.2024
-46.9044
-25.7786
-8.90107
-18.9365
-35.3907
-74.5251
-109.675
-153.678
-190.947
-219.508
-229.026
-237.766
-218.416
-191.325
-146.626
-89.8183
-16.9759
58.2234
134.905
204.052
261.243
310.245
336.995
354.452
347.64
319.527
279.903
225.295
168.173
96.2121
5.79368
-94.8496
-169.477
-215.787
-258.13
-293.48
-305.884
-309.93
-298.984
-278.856
-241.137
-193.12
-136.474
-79.9841
-22.0907
27.221
71.1592
131.156
182.144
229.781
245.288
267.259
262.58
249.673
237.867
222.919
181.071
140.939
101.141
45.944
4.52924
-41.9392
-87.1157
-122.537
-184.325
-213.492
-227.005
-258.55
-247.467
-264.995
-263.288
-261.083
-184.514
-103.414
-111.604
-123.237
-77.9803
17.3012
79.656
120.023
231.156
181.838
-29.7925
-238.073
-293.407
-351.121
-245.143
-35.3437
100.811
114.473
28.0346
-155.204
-361.961
-383.01
-314.395
-170.191
38.1153
268.32
467.946
602.653
702.63
853.035
908.012
924.501
874.346
766.237
612.298
427.048
212.892
20.9675
-164.863
-296.888
-389.171
-446.259
-460.567
-439.835
-395.057
-337.068
-268.465
-235.22
-214.917
-242.034
-272.373
-328.479
-376.065
-406.66
-394.639
-335.551
-244.324
-122.87
5.10232
139.324
261.394
364.71
427.064
431.917
454.716
388.544
282.8
196.782
104.417
19.7685
-72.3004
-125.712
-159.087
-153.699
-137.725
-105.705
-63.6999
-23.0493
24.1458
49.4964
73.4686
68.4369
59.5249
28.3611
-6.67332
-50.6375
-87.9241
-113.184
-143.203
-164.376
-151.346
-147.158
-116.137
-86.0019
-43.3135
-2.50401
49.787
98.4278
140.782
174.518
199.246
227.125
222.876
223.876
195.848
169.137
139.538
98.3774
26.9268
-42.839
-88.076
-129.98
-176.945
-202.568
-203.42
-206.442
-202.607
-194.048
-172.412
-143.71
-108.887
-70.208
-29.4313
-5.92638
33.1179
81.2907
124.625
168.006
189.047
214.203
211.636
217.112
213.26
195.604
165.82
149.558
112.79
62.7032
33.7754
6.57903
-24.1805
-60.9213
-128.544
-156.033
-176.252
-200.227
-189.303
-215.311
-228.342
-230.894
-155.332
-91.7937
-128.316
-128.293
-96.2429
-67.2798
-36.1753
24.2139
141.167
103.219
24.3669
-112.425
-94.973
-38.9846
253.499
633.843
801.943
754.832
560.273
244.526
-122.804
-344.139
-489.832
-568.629
-572.768
-524.257
-458.235
-402.454
-317.149
-208.922
-130.224
-74.4574
-86.7216
-118.905
-144.031
-175.753
-228.857
-244.357
-244.813
-187.68
-98.3093
4.82806
121.649
237.678
342.772
424.907
494.598
505.605
490.711
410.43
322.183
189.386
56.959
-63.3965
-146.06
-183.934
-191.001
-166.941
-132.801
-81.4022
-27.2057
25.9628
57.3174
91.3893
90.5808
39.9859
-13.816
-46.8377
-88.8479
-119.448
-159.714
-168.623
-168.54
-137.474
-102.619
-57.5407
-6.9201
38.1932
89.8998
117.253
146.232
144.78
142.612
116.502
84.8672
43.7878
7.53499
-21.0914
-69.101
-73.6564
-89.4454
-115.442
-111.001
-104.01
-85.2736
-68.3008
-35.7501
-3.20807
30.239
53.4267
81.2351
103.362
110.25
142.626
124.276
122.962
95.5272
66.6519
18.9536
14.3539
5.58271
-27.8714
-64.3648
-81.0709
-86.2491
-102.618
-113.362
-116.437
-110.206
-95.8286
-83.7143
-67.7616
-43.7324
-29.3242
7.53267
41.1492
72.2616
116.8
151.116
171.753
183.633
200.203
181.703
159.318
147.721
150.905
112.422
66.5254
49.09
39.3656
20.459
-12.0771
-75.8616
-98.0155
-123.478
-138.805
-134.987
-170.924
-192.775
-190.493
-117.885
-77.8815
-150.164
-134.606
-101.635
-116.958
-75.7882
-1.2723
97.3792
53.2497
104.605
13.7611
76.933
262.86
742.993
1203.83
1371.16
1258.6
1001.5
611.724
127.647
-272.95
-619.583
-912.286
-1123.27
-1251.61
-1311.83
-1331.45
-1305.04
-1210.07
-1113.37
-1030.32
-994.57
-948.885
-858.048
-746.159
-639.899
-482.878
-310.198
-80.2183
174.79
425.119
662.25
866.092
1026.49
1129.09
1197.78
1186.77
1139.31
1015.88
811.26
669.368
462.463
264.528
95.9134
-34.1178
-136.243
-205.258
-259.633
-286.142
-296.4
-293.077
-292.415
-251.867
-262.487
-282.735
-286.731
-275.163
-271.858
-250.226
-238.536
-204.213
-173.719
-120.955
-70.4135
-14.4374
43.0839
91.4001
146.391
174.99
208.151
209.773
214.122
193.282
168.054
132.434
96.9964
60.803
19.424
22.6668
-46.1104
-94.8877
-133.16
-145.173
-149.68
-140.563
-125.235
-104.504
-79.4593
-57.5048
-23.7686
-16.2748
19.7859
61.5781
64.4941
85.792
66.712
46.3012
33.375
78.2077
84.5723
71.2196
64.2043
58.4862
43.981
8.83929
-22.3029
-48.7384
-62.8203
-62.1231
-64.7149
-71.5462
-52.3929
-27.25
-9.08298
6.27069
22.7368
68.1856
101.435
96.667
124.134
138.836
112.304
111.168
118.551
124.008
88.0263
55.3206
58.71
63.1514
54.2642
34.9058
-15.7393
-31.8679
-61.9997
-68.8741
-76.6108
-121.853
-149.913
-145.114
-85.2494
-67.5338
-164.718
-123.461
-97.62
-149.443
-121.371
-46.6962
35.609
-12.9497
95.6768
81.5398
206.923
570.277
1237.32
1718.18
1830.61
1660.62
1369.17
936.907
363.008
-197.839
-725.662
-1212.89
-1614.6
-1907.41
-2084.51
-2179.72
-2216.7
-2134.36
-2036.07
-1936.96
-1839.83
-1716.13
-1522.2
-1279.05
-1019.38
-696.68
-363.149
24.1492
428.657
812.664
1158.6
1442.35
1653.03
1773.05
1839.45
1807.3
1728.9
1572.58
1305.85
1118.1
841.171
576.254
330.852
114.778
-77.262
-234.258
-373.053
-473.934
-547.466
-594.72
-620.175
-585.975
-606.056
-582.424
-542.425
-490.69
-444.095
-372.314
-310.142
-234.036
-174.666
-102.243
-37.8836
27.4868
90.4934
140.602
197.253
226.195
262.861
267.416
277.944
262.196
244.503
212.927
177.465
139.049
125.817
81.6559
-15.7148
-80.5441
-145.292
-176.823
-209.803
-214.364
-221.24
-207.946
-202.057
-176.685
-143.112
-126.948
-60.3153
-39.1175
-6.66392
31.1906
61.1335
70.2169
103.291
133.395
130.953
133.957
142.667
138.611
126.236
94.6283
61.3109
15.5389
-14.3547
-29.4461
-35.9461
-59.6461
-52.5371
-39.6233
-59.1468
-56.7073
-47.1275
-5.64149
16.0732
-10.2051
33.8927
43.4902
41.5572
92.098
110.19
97.0864
62.8579
46.7501
72.6999
84.324
86.7047
83.8985
43.1796
24.9954
-9.6733
-6.79568
-26.9347
-77.3019
-106.349
-100.03
-54.8501
-56.0334
-173.169
-113.409
-101.884
-188.658
-163.949
-84.3817
-19.8187
-70.3771
72.0959
167.75
346.63
864.874
1714.77
2196.21
2310.31
2056.93
1707.31
1228.31
574.645
-130.063
-817.825
-1477.18
-2049.14
-2490.66
-2775.16
-2944.04
-3040.02
-2965.19
-2886.61
-2776.07
-2619.02
-2425.88
-2138.49
-1776.01
-1371.96
-891.165
-405.219
127.947
667.944
1172.91
1615.94
1970.42
2224.41
2357.29
2419.22
2366.41
2259.3
2070.31
1821.99
1530.31
1192.85
869.317
555.398
261.432
-14.6171
-256.26
-476.154
-647.661
-782.881
-877.517
-925.973
-910.342
-924.076
-861.864
-782.503
-689.635
-599.182
-480.649
-372.036
-256.317
-169.175
-79.12
-3.96666
67.6636
133.399
183.009
239.189
266.849
305.667
313.181
330.815
321.854
313.544
286.316
254.453
222.229
226.276
105.361
46.0209
-47.5517
-90.049
-158.691
-211.742
-264.224
-300.278
-307.689
-328.942
-311.041
-290.475
-230.744
-163.454
-156.983
-100.32
-49.3405
29.5435
85.7836
157.309
157.702
169.173
174.792
167.267
148.043
145.763
135.899
118.266
72.5878
39.1132
8.63794
-1.17846
-33.361
-65.6681
-100.386
-138.154
-123.852
-110.639
-79.4869
-64.5731
-78.8529
-20.9791
-26.1826
3.17437
96.5665
115.103
86.2742
54.1264
50.4325
87.2968
104.709
122.456
132.269
93.885
69.38
33.3299
45.2546
12.4052
-36.577
-61.4149
-58.052
-29.002
-48.2199
-176.705
-97.799
-113.184
-211.985
-204.152
-116.406
-76.1159
-117.088
185.05
280.725
457.648
1145.81
2182.41
2598.52
2729.43
2449.81
2041.52
1507.24
768.382
-71.3706
-901.687
-1710.93
-2429.01
-2999.38
-3380.91
-3618.3
-3756.52
-3709.9
-3665.77
-3541.39
-3335.19
-3083.05
-2708.24
-2235.72
-1696.47
-1065.87
-434.08
234.158
894.605
1506.02
2032.84
2447.82
2737.92
2880.12
2937.04
2865.34
2732.77
2513.35
2223.55
1847.46
1522.4
1144.58
769.23
405.751
50.7313
-272.422
-568.436
-806.869
-1000.92
-1131.93
-1193.4
-1225.01
-1205.21
-1118.1
-1006.97
-873.15
-737.831
-576.149
-426.661
-274.572
-160.502
-53.9664
29.5038
104.572
170.672
218.548
273.559
299.569
339.985
350.365
375.231
373.817
375.044
354.553
332.118
308.714
292.462
151.936
162.299
42.3496
40.6857
-93.8796
-151.323
-272.734
-328.387
-386.244
-408.91
-418.764
-408.591
-329.511
-292.765
-259.917
-175.349
-112.816
-47.5649
44.2464
130.782
181.064
234.241
236.439
224.615
207.299
208.963
199.453
179.376
135.206
96.269
52.2455
18.6998
-23.8561
-82.7881
-147.877
-166.954
-137.292
-137.256
-127.94
-123.234
-99.0786
-42.031
-69.8675
-27.711
70.8003
87.7166
72.138
54.4918
61.2269
100.426
129.626
159.212
171.54
133.909
113.281
84.8064
101.647
52.05
5.83017
-14.4177
-18.841
-4.74897
-40.5212
-172.991
-80.721
-126.817
-234.145
-237.316
-154.473
-130.844
-165.071
270.273
418.32
603.066
1415.07
2578.88
2862.05
2983.46
2752.44
2348.27
1766.76
946.948
-12.8801
-974.224
-1915.59
-2755.3
-3433.34
-3901.81
-4204.06
-4380.03
-4397.4
-4383.24
-4242.36
-3993.41
-3687.1
-3229.56
-2655.88
-1992.16
-1222.34
-451.374
341.522
1108.76
1812.56
2409.81
2875.36
3195.42
3345
3397.55
3309.09
3153.68
2907.99
2583.96
2143.35
1834.08
1402.62
973.568
543.287
113.794
-284.123
-650.551
-953.224
-1201.04
-1364.24
-1447.25
-1517.74
-1462.17
-1350.11
-1210.42
-1038.06
-858.455
-655.446
-469.177
-286.051
-148.665
-28.3013
61.2725
137.875
202.639
247.575
300.215
324.525
367.044
381.155
413.858
420.873
430.78
419.595
407.739
388.796
325.319
253.491
273.379
165.561
140.863
-41.9527
-107.723
-264.606
-325.547
-437.78
-428.439
-474.612
-438.808
-408.101
-386.401
-309.079
-181.048
-132.15
-89.3965
-0.752996
92.3146
226.964
285.561
308.016
357.524
375.497
361.598
321.479
273.282
213.619
152.117
97.0779
19.2385
-42.3762
-79.8886
-136.474
-133.978
-135.009
-173.606
-189.272
-197.96
-138.418
-106.377
-136.915
-83.07
2.51714
24.236
42.3746
46.4788
61.8492
107.659
151.772
189.649
204.468
173.911
167.292
151.142
166.385
96.4068
51.19
32.4306
16.6749
18.4389
-34.1225
-162.51
-67.7439
-141.823
-250.028
-271.746
-197.607
-191.128
-211.356
348.73
541.868
689.495
1667.91
2928.95
2988.79
3109.67
2964.74
2597.89
1991.15
1115.55
46.587
-1038.22
-2092.74
-3030.68
-3800.13
-4351.06
-4725.85
-4958.45
-5044.12
-5038.74
-4885.15
-4596.57
-4237.85
-3700.98
-3034.09
-2257.95
-1360.6
-458.756
448.759
1311.57
2094.63
2748.99
3255.31
3599.86
3756.04
3805.57
3702.65
3527.26
3258.13
2918.33
2494.2
2110.19
1638.34
1165.73
669.447
174.953
-289.406
-722.972
-1087.23
-1382.69
-1584.73
-1698.45
-1758.69
-1695.35
-1561.41
-1392.59
-1183.8
-963.083
-721.073
-500.903
-291.671
-134.767
-3.11541
91.2407
168.122
230.535
271.571
320.652
343.242
387.999
406.165
446.599
462.473
481.436
481.735
478.3
460.535
365.321
376.047
306.204
224.577
97.0033
-50.7121
-149.319
-278.311
-360.542
-477.32
-477.372
-542.179
-455.2
-478.32
-417.76
-318.296
-155.617
-152.156
-35.6052
15.5753
154.219
254.087
268.83
346.366
484.607
518.96
480.452
425.013
364.341
289.483
200.589
133.567
27.7327
-46.4015
-83.3772
-147.076
-146.754
-215.251
-263.806
-285.143
-288.706
-222.368
-224.303
-215.937
-135.098
-58.6161
-27.8535
18.8743
36.4249
55.4223
113.13
163.283
209.781
235.718
217.091
221.629
216.361
230.008
146.288
103.295
81.9535
51.9264
43.3167
-25.3934
-145.048
-56.0008
-149.815
-258.341
-293.636
-236.466
-249.97
-256.516
353.357
560.285
788.553
1947.86
3223.62
3061.64
3345.73
3151.96
2799.56
2180.68
1249
90.8431
-1090.38
-2236.16
-3258.54
-4114.3
-4751.25
-5210.09
-5499.66
-5627.18
-5622.61
-5465.25
-5142.49
-4736.49
-4124.15
-3371.22
-2494.38
-1482.46
-462.049
549.655
1498.81
2351.3
3053.17
3593.11
3958.18
4120.71
4168.17
4052.13
3858.72
3569.58
3213.58
2800.62
2335.39
1867.51
1329.3
788.901
239.382
-290.022
-787.651
-1206.49
-1544.49
-1788.07
-1939.07
-1969.54
-1899.77
-1750.85
-1554.03
-1309.9
-1051.68
-776.287
-527.986
-295.609
-120.005
23.3406
121.933
197.005
255.525
292.13
337.638
358.623
405.241
427.559
475.594
500.018
530.166
538.814
540.524
520.689
432.796
462.3
288.745
213.457
-2.82578
-76.1177
-224.754
-311.181
-445.449
-516.723
-606.537
-642.076
-560.17
-586.894
-464.664
-369.219
-221.326
-225.485
26.3874
39.9485
296.881
263.515
278.03
380.204
520.966
515.482
484.828
460.511
417.338
344.391
248.523
157.955
60.9128
-15.2483
-125.654
-231.821
-250.134
-348.277
-340.181
-338.838
-328.377
-294.606
-305.672
-239.035
-131.16
-72.5721
-40.6194
15.6965
34.5941
53.7818
119.814
174.601
228.295
265.794
254.074
257.436
254.255
262.684
172.673
139.387
117.295
75.6973
61.1903
-20.6639
-129.54
-51.6039
-159.131
-264.728
-315.929
-278.72
-310.251
-306.07
464.476
540.707
934.748
2212.42
3468.1
3170.51
3557.29
3336.16
2982.76
2313.25
1359.49
142.263
-1124.67
-2351.27
-3446.95
-4384.71
-5109.59
-5634.42
-5966.73
-6122.16
-6135.93
-5983.86
-5632.61
-5186.55
-4504.32
-3672.32
-2703.55
-1592.86
-467.173
639.091
1666.35
2582.21
3326.28
3895.13
4277.18
4444.9
4489.84
4360.91
4150.67
3844.37
3472.49
3045.21
2524
2077.81
1482.58
908.008
299.687
-288.105
-841.181
-1309.69
-1697.75
-1961.95
-2149.03
-2168.84
-2087.4
-1926.32
-1702.87
-1422.66
-1127.49
-822.805
-550.569
-294.943
-99.7453
56.2249
157.034
227.492
279.518
309.991
351.094
369.877
417.447
443.391
498.602
531.278
566.394
588.706
595.977
571.76
510.925
505.504
305.253
245.415
-8.258
-71.3778
-264.969
-343.673
-520.964
-568.841
-717.985
-678.474
-699.951
-730.536
-584.172
-506.105
-401.945
-326.034
-12.9685
7.98
374.627
277.279
410.682
469.048
522.457
469.33
476.562
486.686
452.419
385.15
301.777
179.786
93.7294
13.7374
-145.371
-270.857
-323.228
-387.349
-337.447
-318.151
-321.485
-330.352
-314.446
-226.743
-112.09
-75.0622
-38.4078
20.4502
37.5484
58.1048
120.001
181.524
235.235
275.995
272.181
289.926
302.403
313.811
222.919
195.895
168.902
115.773
93.5692
-3.39635
-106.107
-46.6472
-160.205
-267.352
-332.845
-318.061
-366.644
-354.896
521.135
590.895
1003.59
2441.89
3613.37
3280.15
3734.9
3545.58
3189.85
2428.35
1470.46
180.273
-1155.06
-2442.91
-3599.64
-4617.05
-5419.3
-5954.78
-6388
-6548.78
-6589.08
-6445.34
-6069.18
-5590.1
-4846.24
-3943.5
-2890.64
-1699.7
-476.831
715.976
1814.62
2789.32
3571.72
4166.27
4562.5
4733.97
4775.15
4632.84
4406.49
4084.65
3698.59
3260.12
2702.43
2225.83
1659.97
1019.64
355.057
-282.502
-883.839
-1389.82
-1831.51
-2137.87
-2318.41
-2343.99
-2255.68
-2083.64
-1840.45
-1533.11
-1206.59
-873.2
-576.212
-300.291
-87.9064
80.7142
186.731
258.33
306.452
330.066
365.058
380.9
428.595
457.057
517.496
556.832
599.124
631.031
644.312
619.853
579.558
535.788
359.665
319.886
54.0668
-58.2531
-279.469
-373.524
-555.803
-637.211
-742.867
-666.977
-810.337
-835.602
-704.906
-649.135
-527.609
-367.855
-86.0686
-8.18875
301.537
241.554
547.998
572.83
591.58
543.824
560.007
553.217
509.826
442.767
356.077
213.578
101.922
28.8593
-89.0946
-198.472
-286.165
-312.979
-332.242
-356.543
-391.197
-394.734
-327.843
-274.854
-185.675
-143.035
-73.4742
7.92853
35.1769
66.441
133.159
190.776
269.1
309.608
291.635
295.971
307.429
313.833
222.782
208.319
175.808
119.764
102.087
3.23418
-81.3357
-38.443
-148.563
-252.561
-324.739
-329.51
-417.139
-396.426
478.46
763.85
1005.38
2660.44
3662.51
3378.9
3886.37
3641.32
3306.16
2623.67
1558.1
224.963
-1165
-2520.26
-3739.38
-4824.6
-5684.19
-6262.01
-6787.49
-6935.4
-6991.42
-6852.63
-6453.42
-5948.5
-5153.26
-4189.3
-3063.65
-1802.92
-487.112
784.217
1951.12
2979.2
3794.52
4410.69
4818.16
4991.35
5026.82
4870.38
4628.72
4292.9
3894.49
3452.9
2885.68
2363.22
1792.26
1094.44
391.52
-269.921
-903.882
-1470
-1901.42
-2273.39
-2466.91
-2510.08
-2429.64
-2245.59
-1977.46
-1641.43
-1282.64
-913.451
-585.133
-293.699
-70.7881
103.485
214.498
289.722
334.125
349.565
376.748
388.409
434.683
464.456
528.43
573.815
631.133
665.029
683.734
667.259
638.524
573.092
408.001
331.464
114.26
-26.9997
-267.041
-394.438
-573.216
-686.964
-757.551
-758.901
-911.512
-827.266
-707.715
-687.127
-495.555
-327.209
-107.434
43.7377
180.64
203.121
567.656
600.017
698.979
713.373
705.473
648.728
606.726
533.677
408.745
259.89
110.798
33.9605
-68.193
-173.726
-246.04
-290.485
-398.298
-503.715
-549.882
-517.77
-406.939
-376.858
-321.008
-250.761
-146.33
-37.9196
9.29903
51.0085
129.128
157.928
283.685
361.273
378.272
404.104
411.833
409.646
319.743
304.697
263.648
190.303
152.97
31.9515
-58.1235
-36.2525
-151.459
-260.929
-349.772
-413.929
-474.224
-432.321
580.32
924.309
1104.57
2879.6
3642.75
3447.48
4023.69
3774.33
3487.99
2662.52
1615.7
281.905
-1186.72
-2600.84
-3871.46
-5004.72
-5923.49
-6562.97
-7112.47
-7279.67
-7347.22
-7210.75
-6790.34
-6265.31
-5427.58
-4411.76
-3225.92
-1890.8
-495.904
846.193
2078.98
3155.65
3997.82
4630.9
5046.53
5218.76
5246.72
5075.71
4819.88
4472.09
4063.42
3620.73
3073.02
2480.06
1873.75
1155.5
453.484
-243.576
-942.625
-1549.6
-2030.3
-2405.12
-2618.78
-2665.83
-2583.82
-2386.18
-2092.19
-1725.35
-1334.55
-934.032
-581.262
-277.662
-45.0302
133.156
247.449
319.686
355.668
362.666
382.446
389.093
432.84
463.742
531.703
584.479
651.597
693.333
717.63
713.203
693.167
614.365
481.121
338.706
226.132
54.9231
-203.254
-390.044
-587.506
-699.907
-833.343
-929.769
-944.154
-729.379
-629.111
-641.439
-460.12
-297.707
-161.157
65.2624
208.237
364.144
574.926
563.649
739.588
833.754
828.287
752.748
703.221
604.754
451.789
305.164
160.744
-8.47055
-169.274
-282.611
-300.535
-406.607
-451.942
-537.19
-593.034
-581.77
-503.43
-436.311
-374.411
-290.2
-179.918
-70.7539
-4.3203
61.2176
155.624
207.749
283.318
319.079
333.884
363.68
371.266
351.729
245.874
243.559
204.448
156.32
146.819
39.2362
-30.2127
-12.9471
-111.95
-218.297
-299.589
-368.384
-494.548
-447.334
712.455
913.436
1207.19
2935.04
3636.24
3508.54
4147.04
3900.19
3613.76
2850.91
1744.9
297.301
-1200.44
-2670
-3997.68
-5182.47
-6130.44
-6809.62
-7371.76
-7569.14
-7655.59
-7528.09
-7092.34
-6551.04
-5676.48
-4615.96
-3369.8
-1964.23
-507.886
904.519
2194.06
3317.83
4181.08
4829.75
5249.38
5417.61
5436.5
5250.69
4982.13
4624.98
4209.08
3763.82
3234.33
2593.36
1979.44
1264.74
505.486
-249.913
-971.709
-1581.95
-2150.95
-2543.03
-2748.68
-2795.2
-2710.78
-2501.79
-2188.83
-1797.96
-1381.88
-962.769
-594.118
-268.993
-18.1963
171.227
286.124
346.737
371.208
371.749
385.732
387.811
429.172
460.825
532.951
592.67
666.504
717.49
748.615
756.682
740.278
651.968
601.782
456.39
341.076
76.7033
-150.838
-373.565
-585.009
-714.652
-904.379
-989.576
-897.262
-734.299
-742.455
-670.637
-508.859
-354.147
-258.659
29.003
427.082
664.631
614.161
569.215
732.556
852.104
877.425
835.405
745.236
614.216
485.591
350.812
215.67
-48.8694
-216.062
-345.296
-377.822
-490.225
-425.515
-377.209
-478.349
-528.699
-558.225
-438.529
-337.551
-267.191
-171.059
-101.423
-50.5181
12.1321
88.0302
243.694
272.246
325.988
393.692
487.451
527.74
524.797
443.798
431.608
365.232
281.651
236.536
97.6454
13.4707
-11.4773
-134.007
-242.551
-367.494
-377.283
-537.629
-472.907
820.297
873.606
1192.25
2931.84
3641.89
3578.92
4270.14
4028.45
3714.93
2918.28
1742.67
348.463
-1214.43
-2751.33
-4132.73
-5372.3
-6349.43
-7050.03
-7613.28
-7814.48
-7920.77