/*--------------------------------*- C++ -*----------------------------------*\
| =========                 |                                                 |
| \\      /  F ield         | OpenFOAM: The Open Source CFD Toolbox           |
|  \\    /   O peration     | Version:  v2012                                 |
|   \\  /    A nd           | Website:  www.openfoam.com                      |
|    \\/     M anipulation  |                                                 |
\*---------------------------------------------------------------------------*/
FoamFile
{
    version     2.0;
    format      ascii;
    class       volScalarField;
    location    "0.08";
    object      Mach;
}
// * * * * * * * * * * * * * * * * * * * * * * * * * * * * * * * * * * * * * //

dimensions      [0 0 0 0 0 0 0];


internalField   nonuniform List<scalar> 
18000
(
0.474186
0.474578
0.474785
0.474968
0.475173
0.475425
0.47574
0.476134
0.476614
0.477177
0.477819
0.478544
0.479355
0.480261
0.481267
0.48238
0.4836
0.484927
0.486347
0.487846
0.489406
0.491013
0.49265
0.494311
0.495994
0.497702
0.49944
0.501214
0.503026
0.504881
0.506774
0.508705
0.510667
0.51266
0.514682
0.516739
0.518837
0.520988
0.523199
0.525483
0.527843
0.530288
0.532815
0.535428
0.538113
0.540873
0.54369
0.546565
0.549481
0.552445
0.555445
0.55849
0.561573
0.564705
0.56788
0.571107
0.574379
0.577705
0.581071
0.584486
0.587933
0.591421
0.594932
0.598479
0.602043
0.605641
0.609259
0.612914
0.616594
0.620318
0.624075
0.627881
0.631728
0.635626
0.63957
0.643562
0.647601
0.651683
0.655809
0.659969
0.664169
0.668395
0.672656
0.676938
0.68125
0.68558
0.689937
0.694314
0.698715
0.703141
0.707589
0.712067
0.716567
0.721101
0.725657
0.730246
0.73486
0.739504
0.744176
0.74887
0.753593
0.758333
0.763099
0.76788
0.77268
0.777494
0.78232
0.78716
0.792007
0.796867
0.801736
0.806614
0.811505
0.816399
0.821309
0.826221
0.831147
0.836079
0.841024
0.845979
0.850948
0.855923
0.860916
0.865907
0.870922
0.875934
0.880971
0.886008
0.891061
0.896111
0.90117
0.906219
0.911278
0.916316
0.921362
0.92638
0.9314
0.936407
0.941405
0.946399
0.951383
0.956339
0.961311
0.966234
0.971161
0.976045
0.980883
0.985693
0.990346
0.995014
0.474168
0.474562
0.474779
0.474972
0.475184
0.475444
0.475768
0.476171
0.476659
0.477227
0.477871
0.478592
0.479396
0.48029
0.481281
0.482377
0.483579
0.484889
0.486296
0.487785
0.48934
0.490944
0.492581
0.494246
0.495936
0.497653
0.499402
0.501189
0.503017
0.504886
0.506796
0.508745
0.510725
0.512736
0.514775
0.516849
0.518961
0.521123
0.523341
0.52563
0.527992
0.530437
0.532961
0.535569
0.538249
0.541003
0.543813
0.546681
0.549592
0.552551
0.555547
0.558588
0.561667
0.564796
0.567968
0.571194
0.574464
0.577788
0.581154
0.584569
0.588018
0.591508
0.595023
0.598574
0.602143
0.605747
0.60937
0.613029
0.616713
0.62044
0.6242
0.628008
0.631855
0.635753
0.639695
0.643685
0.647722
0.6518
0.655922
0.660079
0.664275
0.668498
0.672757
0.677036
0.681346
0.685674
0.69003
0.694405
0.698805
0.703229
0.707676
0.712153
0.716651
0.721183
0.725736
0.730324
0.734934
0.739576
0.744243
0.748934
0.753652
0.758388
0.763151
0.767927
0.772724
0.777533
0.782355
0.787191
0.792033
0.796889
0.801753
0.806626
0.81151
0.816398
0.821302
0.826206
0.831124
0.836047
0.840981
0.845925
0.85088
0.855841
0.860816
0.865788
0.870782
0.87577
0.880782
0.885791
0.890815
0.89584
0.900877
0.905912
0.910967
0.916011
0.921073
0.926111
0.931151
0.936177
0.941192
0.946204
0.951203
0.956174
0.961162
0.966107
0.971063
0.975987
0.980855
0.98569
0.990337
0.995002
0.474128
0.474512
0.474725
0.47492
0.475132
0.475394
0.475723
0.476139
0.476641
0.477224
0.477884
0.478618
0.479433
0.480334
0.481329
0.482426
0.483626
0.484931
0.48633
0.487811
0.489356
0.490949
0.492575
0.494228
0.495906
0.497612
0.49935
0.501127
0.502944
0.504807
0.506711
0.508656
0.510637
0.512654
0.514701
0.516786
0.518909
0.521083
0.523314
0.525612
0.527983
0.530435
0.532965
0.535578
0.538261
0.541017
0.543829
0.5467
0.549613
0.552573
0.55557
0.558612
0.561692
0.564821
0.567991
0.571215
0.574481
0.577802
0.581163
0.584574
0.588019
0.591506
0.595019
0.598569
0.602139
0.605745
0.60937
0.613033
0.616722
0.620453
0.624217
0.628028
0.631878
0.635779
0.639723
0.643715
0.647752
0.651831
0.655954
0.660111
0.664307
0.668531
0.67279
0.67707
0.681382
0.685711
0.69007
0.694446
0.69885
0.703275
0.707725
0.712203
0.716703
0.721236
0.72579
0.730379
0.734989
0.739631
0.744297
0.748989
0.753706
0.758443
0.763205
0.767981
0.772779
0.777588
0.782412
0.78725
0.792094
0.796954
0.801821
0.806699
0.811587
0.816481
0.82139
0.826299
0.831225
0.836154
0.841096
0.846049
0.851011
0.855983
0.860967
0.865952
0.870957
0.875956
0.880977
0.885992
0.891019
0.896043
0.901071
0.906097
0.911135
0.91616
0.921204
0.926225
0.931254
0.93627
0.941275
0.946281
0.951271
0.956236
0.961224
0.966159
0.971102
0.976016
0.980877
0.985716
0.990341
0.995012
0.474077
0.47445
0.474661
0.474859
0.475073
0.475339
0.475676
0.476105
0.47662
0.477215
0.477885
0.478625
0.47944
0.480337
0.481323
0.482407
0.483592
0.484881
0.486264
0.487728
0.489257
0.490837
0.492452
0.494096
0.495767
0.497468
0.499201
0.500976
0.502792
0.504656
0.506563
0.508516
0.510507
0.512537
0.5146
0.516702
0.518843
0.521033
0.523277
0.525586
0.527965
0.530421
0.532952
0.535563
0.538244
0.540996
0.543804
0.54667
0.549579
0.552536
0.55553
0.55857
0.561647
0.564773
0.56794
0.571159
0.574422
0.577738
0.581095
0.584502
0.587944
0.59143
0.594943
0.598495
0.602068
0.605678
0.609309
0.612978
0.616672
0.620409
0.624178
0.627995
0.631848
0.635752
0.639697
0.643691
0.647727
0.651807
0.655928
0.660085
0.66428
0.668504
0.672762
0.677043
0.681356
0.685686
0.690048
0.694426
0.698833
0.703261
0.707714
0.712195
0.716697
0.721233
0.725788
0.73038
0.73499
0.739635
0.7443
0.748993
0.753711
0.758448
0.763212
0.767987
0.772787
0.777597
0.782424
0.787263
0.79211
0.796974
0.801842
0.806726
0.811617
0.816515
0.821428
0.826341
0.83127
0.836202
0.841147
0.846101
0.851064
0.856037
0.861018
0.866001
0.871002
0.875994
0.88101
0.886015
0.891033
0.896048
0.901063
0.90608
0.911106
0.916122
0.921161
0.92618
0.931216
0.936241
0.941253
0.94627
0.95126
0.956231
0.961216
0.96614
0.971088
0.976015
0.980887
0.98575
0.990358
0.99504
0.474014
0.474375
0.474581
0.474788
0.475007
0.475284
0.475634
0.476078
0.476609
0.477219
0.477901
0.478649
0.479468
0.480364
0.481344
0.482417
0.483587
0.484858
0.486221
0.487665
0.489174
0.490737
0.492337
0.49397
0.49563
0.497323
0.499049
0.500818
0.502631
0.504494
0.506404
0.508363
0.510364
0.512409
0.514489
0.516611
0.518772
0.520982
0.523243
0.525566
0.527956
0.530419
0.532954
0.535567
0.538246
0.540996
0.543801
0.546664
0.54957
0.552525
0.555517
0.558555
0.56163
0.564753
0.567917
0.571132
0.57439
0.577701
0.581054
0.584457
0.587895
0.591379
0.594892
0.598445
0.602021
0.605636
0.609272
0.612949
0.61665
0.620395
0.624169
0.627993
0.63185
0.635759
0.639706
0.643702
0.647738
0.651819
0.655938
0.660095
0.664289
0.668512
0.672771
0.677051
0.681366
0.685698
0.690062
0.694442
0.698854
0.703283
0.707741
0.712223
0.716729
0.721266
0.725823
0.730417
0.735027
0.739674
0.744338
0.749032
0.753749
0.758486
0.763249
0.768024
0.772825
0.777634
0.782463
0.787303
0.792153
0.79702
0.80189
0.806778
0.811671
0.816574
0.821491
0.826408
0.831343
0.836277
0.841226
0.846184
0.851147
0.856125
0.861105
0.866092
0.871093
0.876086
0.881104
0.886111
0.891133
0.896156
0.901177
0.906207
0.911237
0.916256
0.921294
0.926303
0.931331
0.936343
0.941344
0.946357
0.951338
0.956317
0.961311
0.966252
0.971218
0.976145
0.981009
0.985876
0.990445
0.995122
0.47394
0.474293
0.474492
0.474708
0.474934
0.475222
0.475585
0.476046
0.476591
0.477215
0.47791
0.478667
0.47949
0.480386
0.481362
0.482424
0.483578
0.484829
0.48617
0.487592
0.489079
0.490622
0.492207
0.493828
0.495477
0.497162
0.498881
0.500646
0.502456
0.50432
0.506234
0.508201
0.510213
0.512274
0.514372
0.516516
0.518697
0.520927
0.523207
0.525545
0.527946
0.530417
0.532957
0.53557
0.538249
0.540995
0.543796
0.546655
0.549558
0.55251
0.5555
0.558535
0.561607
0.564727
0.567887
0.571098
0.574351
0.577658
0.581005
0.584403
0.587838
0.59132
0.594832
0.598387
0.601967
0.605586
0.609229
0.612913
0.616621
0.620374
0.624156
0.627986
0.631848
0.635762
0.639711
0.64371
0.647745
0.651827
0.655945
0.660102
0.664293
0.668517
0.672774
0.677056
0.681371
0.685704
0.690072
0.694453
0.69887
0.703301
0.707764
0.712248
0.716758
0.721298
0.725857
0.730453
0.735064
0.739713
0.744375
0.749072
0.753787
0.758524
0.763287
0.768061
0.772865
0.777673
0.782505
0.787346
0.792198
0.797069
0.801941
0.806835
0.81173
0.81664
0.821561
0.826482
0.831423
0.83636
0.841315
0.846278
0.851243
0.856227
0.861207
0.866199
0.871202
0.876198
0.88122
0.886227
0.891253
0.896278
0.9013
0.906335
0.911364
0.916386
0.921426
0.926434
0.93147
0.936482
0.941487
0.946511
0.951489
0.956479
0.961475
0.966403
0.971354
0.976264
0.981117
0.986004
0.990535
0.99521
0.473862
0.474204
0.474394
0.474619
0.474852
0.475154
0.475532
0.476011
0.47657
0.477208
0.477913
0.478679
0.479507
0.480404
0.481376
0.482428
0.483566
0.484798
0.486116
0.487515
0.48898
0.490503
0.492071
0.493678
0.495317
0.496994
0.498707
0.500468
0.502277
0.504142
0.506061
0.508037
0.510061
0.512137
0.514252
0.516416
0.518618
0.520869
0.523168
0.525522
0.527937
0.530416
0.532962
0.535577
0.538255
0.540999
0.543796
0.546651
0.54955
0.552498
0.555484
0.558516
0.561586
0.564702
0.567858
0.571065
0.574314
0.577616
0.580959
0.584353
0.587785
0.591265
0.594777
0.598333
0.601916
0.605541
0.60919
0.612881
0.616597
0.620359
0.624147
0.627985
0.631852
0.635771
0.639722
0.643725
0.647761
0.651844
0.65596
0.660117
0.664307
0.668531
0.672787
0.677069
0.681385
0.68572
0.69009
0.694474
0.698895
0.703328
0.707797
0.712282
0.716797
0.721339
0.725901
0.7305
0.73511
0.739763
0.744424
0.749123
0.753836
0.758575
0.763338
0.768112
0.772917
0.777724
0.78256
0.787401
0.792257
0.797131
0.802005
0.806905
0.811802
0.816719
0.821643
0.826569
0.831516
0.836456
0.841417
0.846383
0.851352
0.856342
0.86132
0.866319
0.871322
0.876319
0.881345
0.88635
0.891379
0.896404
0.901423
0.906463
0.911488
0.916514
0.921555
0.926562
0.931605
0.936614
0.941619
0.946648
0.951618
0.956617
0.961613
0.966537
0.971505
0.97642
0.981284
0.986192
0.990664
0.995324
0.473783
0.474112
0.474291
0.474522
0.474764
0.475084
0.475481
0.475976
0.476547
0.477194
0.477909
0.478682
0.479516
0.480415
0.481383
0.482427
0.483552
0.484765
0.48606
0.487436
0.488878
0.490378
0.491927
0.49352
0.495147
0.496817
0.498523
0.500283
0.502091
0.503959
0.505884
0.507868
0.509903
0.511995
0.514127
0.516311
0.518533
0.520805
0.523123
0.525494
0.527922
0.530411
0.532964
0.535581
0.538259
0.540999
0.543793
0.546643
0.549537
0.552481
0.555464
0.558493
0.561559
0.564673
0.567825
0.571029
0.574274
0.577572
0.580911
0.584301
0.587731
0.591208
0.59472
0.598277
0.601863
0.605492
0.609148
0.612846
0.61657
0.620339
0.624135
0.62798
0.631853
0.635779
0.639733
0.643739
0.647775
0.65186
0.655974
0.660133
0.664321
0.668545
0.6728
0.677083
0.681399
0.685735
0.690108
0.694494
0.698919
0.703354
0.707829
0.712316
0.716837
0.72138
0.725946
0.730547
0.735159
0.739814
0.744474
0.749177
0.753888
0.758629
0.763391
0.768165
0.772972
0.777778
0.782618
0.787458
0.792319
0.797196
0.802071
0.806978
0.811875
0.8168
0.821727
0.826658
0.831612
0.836554
0.841523
0.846492
0.851464
0.85646
0.861437
0.866443
0.871446
0.876446
0.881475
0.886477
0.89151
0.896535
0.901552
0.906597
0.911616
0.916646
0.921688
0.926692
0.93174
0.936742
0.941749
0.946784
0.951744
0.956756
0.961753
0.966673
0.971657
0.976571
0.981428
0.986369
0.990795
0.995446
0.473705
0.474016
0.474184
0.474421
0.474674
0.475015
0.475428
0.475937
0.476517
0.477173
0.477895
0.478676
0.479515
0.480417
0.481384
0.482421
0.483534
0.484729
0.486002
0.487356
0.488773
0.49025
0.49178
0.493357
0.494973
0.496637
0.498338
0.500098
0.501906
0.503778
0.50571
0.507702
0.509749
0.511854
0.514001
0.516204
0.518444
0.520736
0.523072
0.52546
0.527903
0.530402
0.532962
0.535581
0.53826
0.540998
0.543788
0.546633
0.549523
0.552463
0.555441
0.558467
0.56153
0.564641
0.567791
0.570991
0.574233
0.577527
0.580863
0.58425
0.587677
0.591152
0.594664
0.598221
0.60181
0.605444
0.609105
0.61281
0.616542
0.620319
0.624123
0.627976
0.631855
0.635786
0.639744
0.643754
0.647791
0.651878
0.655991
0.66015
0.664336
0.668561
0.672814
0.677098
0.681414
0.685752
0.690127
0.694514
0.698944
0.703381
0.707862
0.71235
0.716878
0.721423
0.725993
0.730597
0.73521
0.739869
0.744528
0.749234
0.753942
0.758687
0.763448
0.768223
0.773031
0.777835
0.782679
0.787518
0.792384
0.797263
0.802141
0.807054
0.811951
0.816884
0.821814
0.82675
0.83171
0.836654
0.841631
0.846603
0.851579
0.856581
0.861557
0.866572
0.871572
0.876576
0.881609
0.886608
0.891647
0.89667
0.901686
0.906737
0.91175
0.916785
0.921826
0.926827
0.931883
0.936877
0.941887
0.946928
0.951877
0.956902
0.961897
0.966811
0.971812
0.976717
0.981567
0.986539
0.990907
0.995553
0.47363
0.473918
0.474074
0.474316
0.474583
0.474943
0.47537
0.475894
0.476483
0.477147
0.477876
0.478663
0.479507
0.480412
0.481378
0.48241
0.483512
0.484691
0.485942
0.487273
0.488667
0.490121
0.491632
0.493194
0.494799
0.496457
0.498154
0.499914
0.501725
0.5036
0.505538
0.507538
0.509595
0.511713
0.513874
0.516095
0.518352
0.520664
0.523018
0.525422
0.527879
0.530388
0.532956
0.535579
0.538258
0.540994
0.54378
0.546621
0.549505
0.552441
0.555415
0.558438
0.561498
0.564606
0.567754
0.570952
0.574191
0.577481
0.580814
0.584198
0.587623
0.591097
0.594608
0.598166
0.601758
0.605395
0.609062
0.612774
0.616513
0.620298
0.624109
0.62797
0.631855
0.635793
0.639754
0.643769
0.647806
0.651895
0.656008
0.660168
0.664351
0.668577
0.672828
0.677113
0.681429
0.685769
0.690146
0.694535
0.698969
0.703408
0.707895
0.712385
0.716919
0.721465
0.726041
0.730647
0.735262
0.739925
0.744582
0.749293
0.753999
0.758748
0.763507
0.768283
0.773092
0.777895
0.782744
0.787581
0.792452
0.797332
0.802212
0.807131
0.812028
0.816971
0.821901
0.826844
0.83181
0.836756
0.841742
0.846714
0.851696
0.856704
0.861678
0.866703
0.871701
0.87671
0.881746
0.886742
0.891788
0.896808
0.901824
0.906881
0.911885
0.916928
0.921967
0.926965
0.932029
0.937013
0.942028
0.947076
0.95201
0.957052
0.962044
0.966949
0.971972
0.976865
0.981713
0.986723
0.991023
0.995652
0.473559
0.473821
0.473964
0.47421
0.474491
0.474868
0.47531
0.475847
0.476444
0.477114
0.477849
0.478643
0.479491
0.480399
0.481366
0.482392
0.483485
0.484649
0.485881
0.487191
0.488561
0.489994
0.491487
0.493033
0.494628
0.49628
0.497974
0.499735
0.501547
0.503427
0.505371
0.507378
0.509445
0.511575
0.513749
0.515986
0.51826
0.52059
0.522961
0.525381
0.527852
0.530371
0.532947
0.535573
0.538253
0.540986
0.543769
0.546605
0.549485
0.552416
0.555386
0.558407
0.561464
0.56457
0.567716
0.570912
0.574149
0.577436
0.580767
0.584148
0.587571
0.591043
0.594554
0.598112
0.601707
0.605347
0.609019
0.612737
0.616483
0.620277
0.624095
0.627964
0.631855
0.635799
0.639764
0.643783
0.647822
0.651913
0.656024
0.660185
0.664367
0.668594
0.672843
0.677129
0.681444
0.685786
0.690164
0.694556
0.698994
0.703434
0.707928
0.712419
0.716961
0.721508
0.72609
0.730697
0.735316
0.739981
0.744638
0.749354
0.754056
0.75881
0.763567
0.768345
0.773155
0.777957
0.78281
0.787644
0.792522
0.797402
0.802285
0.807209
0.812106
0.817058
0.821988
0.826939
0.831909
0.836857
0.841853
0.846826
0.851814
0.856827
0.8618
0.866835
0.871829
0.876845
0.881883
0.886876
0.89193
0.896946
0.901963
0.907026
0.912021
0.917073
0.922109
0.927106
0.932179
0.937149
0.942172
0.947226
0.952144
0.957204
0.962192
0.967088
0.972135
0.977014
0.981859
0.986911
0.991135
0.99575
0.473495
0.473725
0.473857
0.474103
0.4744
0.474792
0.475245
0.475795
0.476399
0.477075
0.477817
0.478617
0.479469
0.48038
0.481346
0.482369
0.483454
0.484605
0.485817
0.487108
0.488457
0.489869
0.491344
0.492876
0.49446
0.496107
0.497798
0.499562
0.501376
0.503261
0.505211
0.507224
0.509301
0.511441
0.513627
0.51588
0.518167
0.520515
0.522902
0.525337
0.527821
0.53035
0.532933
0.535562
0.538244
0.540976
0.543755
0.546587
0.549462
0.55239
0.555356
0.558374
0.561429
0.564534
0.567678
0.570872
0.574106
0.577392
0.58072
0.584099
0.58752
0.59099
0.594501
0.59806
0.601657
0.6053
0.608978
0.612702
0.616454
0.620255
0.624081
0.627957
0.631854
0.635805
0.639773
0.643797
0.647837
0.65193
0.656041
0.660203
0.664383
0.66861
0.672857
0.677145
0.681459
0.685803
0.690182
0.694577
0.699018
0.703461
0.70796
0.712453
0.717002
0.72155
0.726139
0.730747
0.735369
0.740037
0.744694
0.749414
0.754115
0.758874
0.763627
0.768409
0.773219
0.778019
0.782877
0.787708
0.792593
0.797471
0.802359
0.807287
0.812183
0.817145
0.822075
0.827034
0.832008
0.836958
0.841964
0.846936
0.851933
0.856949
0.861921
0.866967
0.871956
0.87698
0.88202
0.887009
0.892074
0.897083
0.902103
0.907172
0.912156
0.917219
0.922251
0.927246
0.93233
0.937284
0.942319
0.947377
0.952278
0.957358
0.962342
0.967226
0.972301
0.977161
0.982004
0.987103
0.991244
0.995845
0.473433
0.473632
0.473752
0.473997
0.474309
0.474715
0.475178
0.475739
0.47635
0.477032
0.477779
0.478585
0.47944
0.480355
0.481321
0.482341
0.48342
0.484559
0.485754
0.487027
0.488355
0.489747
0.491206
0.492723
0.494298
0.495941
0.497629
0.499396
0.501213
0.503102
0.505059
0.507077
0.509163
0.511313
0.513509
0.515775
0.518076
0.52044
0.522842
0.525292
0.527788
0.530326
0.532917
0.535549
0.538233
0.540962
0.543739
0.546567
0.549437
0.552361
0.555323
0.55834
0.561392
0.564497
0.567639
0.570832
0.574065
0.577349
0.580676
0.584052
0.587472
0.59094
0.594451
0.59801
0.601609
0.605255
0.608937
0.612667
0.616426
0.620234
0.624067
0.62795
0.631853
0.63581
0.639782
0.64381
0.647851
0.651947
0.656057
0.660221
0.664398
0.668626
0.672871
0.677161
0.681474
0.68582
0.6902
0.694598
0.699042
0.703487
0.707993
0.712487
0.717043
0.721593
0.726188
0.730797
0.735424
0.740093
0.744751
0.749476
0.754173
0.758938
0.763687
0.768473
0.773282
0.778083
0.782944
0.787771
0.792665
0.79754
0.802433
0.807364
0.81226
0.817233
0.82216
0.827128
0.832106
0.837057
0.842074
0.847043
0.85205
0.857069
0.86204
0.867098
0.87208
0.877115
0.882156
0.887141
0.892217
0.897218
0.902243
0.907317
0.91229
0.917366
0.922391
0.927387
0.932481
0.937417
0.942466
0.947527
0.952409
0.957513
0.96249
0.967361
0.972468
0.977303
0.982148
0.987297
0.991348
0.995936
0.473379
0.473541
0.473652
0.473892
0.474221
0.474638
0.475109
0.475679
0.476296
0.476984
0.477735
0.478546
0.479406
0.480324
0.481292
0.48231
0.483384
0.484512
0.48569
0.486947
0.488255
0.489628
0.491072
0.492576
0.494143
0.495782
0.497467
0.499239
0.501059
0.502952
0.504915
0.506938
0.509031
0.511189
0.513394
0.515673
0.517986
0.520366
0.522781
0.525244
0.527753
0.530299
0.532898
0.535533
0.538218
0.540946
0.54372
0.546544
0.549409
0.55233
0.555289
0.558304
0.561355
0.564459
0.567601
0.570793
0.574025
0.577308
0.580633
0.584007
0.587425
0.590892
0.594403
0.597962
0.601562
0.605211
0.608898
0.612632
0.616398
0.620213
0.624053
0.627943
0.631852
0.635814
0.639791
0.643822
0.647865
0.651964
0.656073
0.660238
0.664413
0.668642
0.672885
0.677176
0.681487
0.685837
0.690217
0.694618
0.699065
0.703513
0.708024
0.71252
0.717084
0.721633
0.726236
0.730846
0.735478
0.740149
0.744807
0.749537
0.75423
0.759002
0.763746
0.768537
0.773345
0.778145
0.78301
0.787833
0.792736
0.797608
0.802507
0.80744
0.812335
0.817319
0.822242
0.827221
0.832201
0.837155
0.842183
0.847147
0.852166
0.857186
0.862157
0.867228
0.872202
0.877249
0.882288
0.887271
0.892359
0.89735
0.902381
0.90746
0.91242
0.917512
0.922528
0.927525
0.932631
0.937545
0.942613
0.947676
0.952537
0.957667
0.962637
0.967493
0.972636
0.977441
0.98229
0.987494
0.991449
0.996018
0.473325
0.473449
0.473556
0.473792
0.474137
0.474564
0.475039
0.475618
0.47624
0.476932
0.477686
0.478502
0.479366
0.48029
0.48126
0.482276
0.483347
0.484464
0.485626
0.486867
0.488157
0.489512
0.490943
0.492435
0.493995
0.495631
0.497315
0.499091
0.500913
0.50281
0.504779
0.506805
0.508905
0.51107
0.513284
0.515574
0.517898
0.520292
0.52272
0.525197
0.527717
0.530271
0.532877
0.535514
0.538201
0.540927
0.543698
0.546518
0.54938
0.552298
0.555254
0.558268
0.561318
0.564422
0.567563
0.570755
0.573987
0.577268
0.580592
0.583964
0.587381
0.590846
0.594356
0.597915
0.601518
0.605169
0.608859
0.612598
0.616371
0.620192
0.624039
0.627936
0.631851
0.635819
0.6398
0.643835
0.647879
0.65198
0.656088
0.660253
0.664427
0.668657
0.672898
0.677191
0.681501
0.685853
0.690233
0.694638
0.699087
0.703538
0.708054
0.712552
0.717124
0.721673
0.726284
0.730894
0.735531
0.740203
0.744863
0.749596
0.754287
0.759065
0.763804
0.768601
0.773405
0.778208
0.783075
0.787895
0.792807
0.797673
0.80258
0.807514
0.812409
0.817404
0.822322
0.827313
0.832293
0.83725
0.842289
0.847249
0.852281
0.8573
0.862271
0.867355
0.87232
0.87738
0.882417
0.887397
0.892499
0.897478
0.902518
0.9076
0.912547
0.917657
0.922661
0.927662
0.93278
0.937669
0.942759
0.947823
0.95266
0.957821
0.96278
0.96762
0.972804
0.977575
0.982427
0.987692
0.991544
0.99609
0.473275
0.473362
0.473465
0.473694
0.474055
0.474489
0.474968
0.475554
0.476179
0.476875
0.477634
0.478454
0.479324
0.480253
0.481225
0.48224
0.483307
0.484414
0.485561
0.486789
0.488062
0.4894
0.490819
0.4923
0.493855
0.495489
0.497171
0.498952
0.500776
0.502677
0.50465
0.506679
0.508785
0.510956
0.513177
0.515478
0.517812
0.520221
0.52266
0.525149
0.52768
0.530242
0.532853
0.535493
0.538181
0.540905
0.543674
0.54649
0.549348
0.552264
0.555217
0.558231
0.561281
0.564385
0.567526
0.570719
0.57395
0.577231
0.580553
0.583923
0.587338
0.590802
0.594312
0.59787
0.601474
0.605127
0.608822
0.612566
0.616345
0.620172
0.624025
0.627928
0.63185
0.635823
0.639807
0.643846
0.647892
0.651994
0.656102
0.660268
0.66444
0.668671
0.67291
0.677205
0.681513
0.685868
0.690248
0.694656
0.699108
0.703563
0.708084
0.712583
0.717163
0.721711
0.726331
0.73094
0.735584
0.740256
0.744918
0.749654
0.754342
0.759127
0.763861
0.768664
0.773465
0.778269
0.783139
0.787954
0.792876
0.797736
0.802651
0.807585
0.812481
0.817486
0.8224
0.827404
0.832382
0.837343
0.842392
0.847346
0.852394
0.857409
0.862383
0.86748
0.872433
0.87751
0.882541
0.887521
0.892637
0.897601
0.902652
0.907736
0.912669
0.9178
0.922789
0.927797
0.932926
0.937788
0.942904
0.947967
0.952779
0.957972
0.962919
0.967743
0.972971
0.977702
0.982559
0.987891
0.991635
0.99615
0.473228
0.473277
0.473376
0.4736
0.473976
0.474414
0.474895
0.475489
0.476117
0.476817
0.47758
0.478404
0.479278
0.480213
0.481187
0.482201
0.483265
0.484363
0.485495
0.486712
0.487969
0.489293
0.490702
0.492173
0.493723
0.495355
0.497035
0.498821
0.500648
0.50255
0.504528
0.506559
0.508671
0.510847
0.513075
0.515386
0.517729
0.520151
0.522601
0.525102
0.527641
0.530211
0.532827
0.535469
0.538158
0.54088
0.543647
0.54646
0.549315
0.552229
0.55518
0.558194
0.561243
0.564349
0.56749
0.570683
0.573914
0.577194
0.580515
0.583884
0.587298
0.59076
0.594269
0.597827
0.601433
0.605088
0.608787
0.612534
0.616319
0.620152
0.624012
0.627921
0.631848
0.635826
0.639815
0.643856
0.647904
0.652008
0.656115
0.660282
0.664453
0.668684
0.672921
0.677217
0.681524
0.685882
0.690262
0.694675
0.699128
0.703587
0.708113
0.712613
0.7172
0.721748
0.726376
0.730984
0.735635
0.740307
0.744972
0.749711
0.754396
0.759187
0.763915
0.768725
0.773522
0.778329
0.7832
0.788012
0.792944
0.797797
0.802721
0.807654
0.812551
0.817566
0.822474
0.827492
0.832468
0.837433
0.842492
0.84744
0.852503
0.857514
0.862491
0.8676
0.872542
0.877636
0.882661
0.887641
0.892771
0.897718
0.902784
0.907868
0.912787
0.91794
0.922913
0.927929
0.933069
0.937901
0.943047
0.948108
0.952892
0.958122
0.963054
0.96786
0.973136
0.977823
0.982686
0.988089
0.991721
0.996198
0.473183
0.473195
0.473287
0.473505
0.473897
0.474336
0.474822
0.475424
0.476054
0.476757
0.477523
0.478351
0.47923
0.48017
0.481147
0.482158
0.48322
0.48431
0.48543
0.486637
0.487879
0.48919
0.49059
0.492051
0.493598
0.495229
0.496907
0.498698
0.500526
0.502431
0.504413
0.506446
0.508564
0.510743
0.512978
0.515297
0.517649
0.520083
0.522542
0.525054
0.527602
0.530177
0.5328
0.535442
0.538133
0.540854
0.543619
0.546429
0.549282
0.552193
0.555143
0.558157
0.561206
0.564313
0.567455
0.570648
0.57388
0.577158
0.580479
0.583846
0.587258
0.590719
0.594228
0.597786
0.601393
0.605049
0.608752
0.612504
0.616294
0.620132
0.623998
0.627913
0.631846
0.635828
0.63982
0.643865
0.647914
0.65202
0.656127
0.660295
0.664464
0.668695
0.672931
0.677229
0.681535
0.685896
0.690275
0.694692
0.699147
0.703609
0.70814
0.712642
0.717237
0.721784
0.72642
0.731026
0.735685
0.740356
0.745025
0.749765
0.754448
0.759245
0.763967
0.768785
0.773577
0.778388
0.783259
0.788068
0.79301
0.797856
0.80279
0.80772
0.812619
0.817644
0.822545
0.827578
0.83255
0.837521
0.842589
0.847529
0.85261
0.857615
0.862597
0.867716
0.872645
0.877759
0.882775
0.887757
0.892901
0.89783
0.902913
0.907995
0.9129
0.918076
0.92303
0.928058
0.933208
0.938007
0.943187
0.948244
0.953
0.95827
0.963185
0.967973
0.9733
0.977937
0.982807
0.988286
0.991802
0.996236
0.473142
0.47312
0.473195
0.473411
0.47382
0.474258
0.474749
0.475359
0.475992
0.476696
0.477466
0.478297
0.479178
0.480124
0.481103
0.482112
0.483173
0.484257
0.485366
0.486564
0.487793
0.489092
0.490484
0.491936
0.493479
0.495109
0.496786
0.498582
0.500411
0.50232
0.504306
0.506339
0.508462
0.510646
0.512886
0.515213
0.517571
0.520016
0.522484
0.525006
0.527562
0.530143
0.532771
0.535414
0.538107
0.540826
0.543589
0.546397
0.549247
0.552157
0.555105
0.55812
0.561169
0.564276
0.567419
0.570614
0.573845
0.577124
0.580444
0.583809
0.587221
0.59068
0.594188
0.597746
0.601354
0.605013
0.608719
0.612474
0.616269
0.620112
0.623985
0.627904
0.631842
0.635829
0.639825
0.643873
0.647924
0.652031
0.656138
0.660307
0.664474
0.668707
0.67294
0.67724
0.681544
0.685908
0.690287
0.694709
0.699164
0.703631
0.708165
0.71267
0.717271
0.721817
0.726462
0.731066
0.735733
0.740402
0.745076
0.749816
0.754498
0.759302
0.764018
0.768843
0.773629
0.778446
0.783317
0.788123
0.793074
0.797911
0.802857
0.807783
0.812685
0.817719
0.822613
0.827662
0.832627
0.837606
0.842681
0.847614
0.852714
0.85771
0.862699
0.867828
0.872744
0.877879
0.882884
0.88787
0.893027
0.897936
0.90304
0.908117
0.913009
0.918211
0.923142
0.928185
0.933345
0.938108
0.943325
0.948376
0.953103
0.958415
0.963309
0.96808
0.973461
0.978045
0.982922
0.988481
0.991878
0.996265
0.473101
0.47305
0.473103
0.473315
0.473743
0.47418
0.474677
0.475296
0.475928
0.476634
0.477407
0.478241
0.479125
0.480076
0.481057
0.482065
0.483125
0.484204
0.485303
0.486495
0.487711
0.488998
0.490383
0.491826
0.493367
0.494996
0.496671
0.498474
0.500304
0.502215
0.504205
0.506239
0.508368
0.510554
0.512798
0.515132
0.517496
0.519951
0.522427
0.524957
0.527521
0.530108
0.532741
0.535386
0.538081
0.540798
0.54356
0.546365
0.549213
0.552121
0.555067
0.558083
0.561131
0.56424
0.567384
0.570579
0.573811
0.57709
0.58041
0.583775
0.587186
0.590644
0.594153
0.59771
0.60132
0.604979
0.608688
0.612447
0.616247
0.620094
0.623972
0.627896
0.631839
0.63583
0.63983
0.643881
0.647933
0.652042
0.656149
0.660318
0.664484
0.668718
0.672949
0.677251
0.681554
0.685921
0.690299
0.694726
0.699181
0.703653
0.70819
0.712697
0.717304
0.72185
0.726503
0.731104
0.73578
0.740446
0.745127
0.749866
0.754547
0.759357
0.764066
0.7689
0.77368
0.778502
0.783372
0.788177
0.793137
0.797965
0.802923
0.807843
0.812749
0.817791
0.822678
0.827743
0.832702
0.837688
0.84277
0.847695
0.852814
0.857801
0.862799
0.867936
0.872838
0.877995
0.882988
0.887979
0.89315
0.898036
0.903162
0.908233
0.913113
0.918339
0.923247
0.928308
0.933477
0.938202
0.94346
0.948505
0.9532
0.958559
0.96343
0.968184
0.973621
0.978148
0.983031
0.988675
0.99195
0.996286
0.473063
0.472981
0.473014
0.473217
0.473669
0.474105
0.474608
0.475233
0.475867
0.476571
0.477348
0.478184
0.479069
0.480025
0.481009
0.482016
0.483078
0.484153
0.485242
0.486429
0.487633
0.488908
0.490287
0.491721
0.49326
0.494889
0.496563
0.498372
0.500204
0.502119
0.504112
0.506147
0.50828
0.510467
0.512716
0.515054
0.517423
0.519888
0.52237
0.52491
0.52748
0.530073
0.532711
0.535358
0.538054
0.540769
0.54353
0.546333
0.549179
0.552085
0.555029
0.558045
0.561092
0.564204
0.567349
0.570547
0.57378
0.57706
0.58038
0.583745
0.587155
0.590612
0.59412
0.597677
0.601287
0.604947
0.608659
0.61242
0.616225
0.620076
0.623959
0.627888
0.631836
0.635831
0.639834
0.643888
0.647942
0.652053
0.656159
0.66033
0.664494
0.668729
0.672959
0.677262
0.681563
0.685934
0.69031
0.694742
0.699197
0.703675
0.708213
0.712723
0.717336
0.72188
0.726542
0.731141
0.735825
0.740489
0.745176
0.749914
0.754595
0.759411
0.764113
0.768956
0.773729
0.778558
0.783425
0.788229
0.793198
0.798017
0.802987
0.8079
0.812812
0.817861
0.82274
0.827822
0.832772
0.837768
0.842855
0.847772
0.852911
0.857886
0.862895
0.868039
0.872927
0.878108
0.883086
0.888085
0.893269
0.898132
0.903285
0.908347
0.913215
0.918468
0.923349
0.92843
0.933607
0.938291
0.943592
0.948628
0.95329
0.958696
0.963542
0.96828
0.973774
0.978242
0.98313
0.988865
0.992017
0.996301
0.473024
0.472912
0.472933
0.473122
0.473598
0.474035
0.474542
0.475172
0.475806
0.47651
0.477289
0.478126
0.479012
0.479974
0.480961
0.481968
0.483032
0.484104
0.485184
0.486367
0.487559
0.488823
0.490196
0.491622
0.49316
0.494788
0.496462
0.498278
0.500112
0.502029
0.504026
0.506061
0.508198
0.510386
0.512637
0.51498
0.517353
0.519827
0.522316
0.524864
0.527441
0.530038
0.532682
0.53533
0.538027
0.540741
0.543501
0.5463
0.549143
0.552048
0.554992
0.558009
0.561057
0.564171
0.567318
0.570518
0.573752
0.577032
0.580352
0.583716
0.587125
0.59058
0.594088
0.597644
0.601255
0.604916
0.608631
0.612394
0.616203
0.620058
0.623946
0.62788
0.631833
0.635832
0.639839
0.643895
0.647951
0.652063
0.65617
0.660341
0.664504
0.66874
0.672967
0.677273
0.681572
0.685946
0.690321
0.694757
0.699212
0.703694
0.708235
0.712748
0.717367
0.72191
0.726579
0.731176
0.735869
0.74053
0.745223
0.749961
0.754643
0.759462
0.764159
0.76901
0.773776
0.778613
0.783477
0.78828
0.793257
0.798066
0.80305
0.807954
0.812872
0.817928
0.822799
0.827898
0.832838
0.837845
0.842936
0.847845
0.853005
0.857967
0.862988
0.868137
0.873011
0.878217
0.883179
0.888187
0.893381
0.898219
0.903399