/*--------------------------------*- C++ -*----------------------------------*\
| =========                 |                                                 |
| \\      /  F ield         | OpenFOAM: The Open Source CFD Toolbox           |
|  \\    /   O peration     | Version:  v2012                                 |
|   \\  /    A nd           | Website:  www.openfoam.com                      |
|    \\/     M anipulation  |                                                 |
\*---------------------------------------------------------------------------*/
FoamFile
{
    version     2.0;
    format      ascii;
    class       volScalarField;
    location    "0.08";
    object      S_sat;
}
// * * * * * * * * * * * * * * * * * * * * * * * * * * * * * * * * * * * * * //

dimensions      [0 0 0 0 0 0 0];


internalField   nonuniform List<scalar> 
18000
(
1.82061
1.82375
1.82451
1.8248
1.82484
1.82479
1.82477
1.82497
1.82558
1.82683
1.82887
1.83183
1.83575
1.84065
1.84645
1.85313
1.86058
1.86875
1.87752
1.88682
1.89653
1.90659
1.91688
1.92731
1.93777
1.94819
1.9585
1.96868
1.97869
1.98856
1.99829
2.00796
2.01758
2.02728
2.03712
2.04725
2.05774
2.06875
2.08032
2.0926
2.10558
2.11941
2.13399
2.1495
2.16577
2.18299
2.20096
2.21985
2.23948
2.25997
2.28115
2.30315
2.32578
2.34919
2.37317
2.39789
2.42316
2.44918
2.47571
2.503
2.53081
2.55943
2.5886
2.61864
2.64929
2.68089
2.71318
2.7465
2.78061
2.81583
2.85197
2.88929
2.92768
2.96731
3.00817
3.05033
3.09388
3.13877
3.18519
3.23298
3.28244
3.33333
3.38599
3.44016
3.49614
3.55375
3.61319
3.67442
3.73751
3.80258
3.86951
3.93864
4.00967
4.08305
4.15847
4.23631
4.31642
4.39901
4.48414
4.5718
4.66226
4.75536
4.8515
4.95052
5.05268
5.15803
5.26662
5.37872
5.49425
5.61351
5.73657
5.86348
5.99461
6.12969
6.26935
6.41318
6.56184
6.71509
6.87341
7.03676
7.20557
7.37958
7.55958
7.74481
7.9367
8.13417
8.33875
8.54944
8.76725
8.99159
9.22341
9.4621
9.7093
9.96362
10.2273
10.4985
10.7792
11.0686
11.3673
11.6757
11.9941
12.321
12.6603
13.0077
13.3679
13.7367
14.1151
14.5022
14.8917
15.2921
1.8205
1.8236
1.82436
1.82469
1.82478
1.82481
1.82489
1.8252
1.82596
1.82734
1.82949
1.83251
1.83644
1.84129
1.84703
1.85361
1.86095
1.86901
1.87767
1.88685
1.89644
1.90636
1.91649
1.92677
1.93708
1.94739
1.95761
1.96772
1.9777
1.98757
1.99732
2.00704
2.01673
2.02655
2.03652
2.04679
2.05742
2.06857
2.08026
2.09265
2.10572
2.11962
2.13427
2.14982
2.16612
2.18335
2.20132
2.2202
2.2398
2.26026
2.2814
2.30335
2.32593
2.34928
2.37321
2.39789
2.4231
2.44906
2.47554
2.5028
2.53059
2.55919
2.58835
2.61839
2.64905
2.68066
2.71297
2.74631
2.78045
2.8157
2.85187
2.88922
2.92763
2.96731
3.00819
3.05038
3.09394
3.13885
3.18528
3.23308
3.28255
3.33345
3.38611
3.44027
3.49626
3.55385
3.61332
3.67453
3.73763
3.80268
3.86963
3.93875
4.00979
4.08317
4.15858
4.23644
4.31654
4.39915
4.48428
4.57195
4.66243
4.75554
4.85172
4.95075
5.05297
5.15835
5.26698
5.37911
5.49466
5.61397
5.73705
5.86402
5.9952
6.13034
6.27007
6.41397
6.5627
6.71603
6.87441
7.03788
7.20676
7.38093
7.56106
7.74648
7.93863
8.13636
8.34135
8.55256
8.7711
8.99644
9.22952
9.46984
9.71902
9.9755
10.2412
10.5139
10.7955
11.0854
11.3841
11.6922
12.0099
12.3362
12.6744
13.0203
13.379
13.7473
14.125
14.512
14.8989
15.2976
1.82035
1.82336
1.82412
1.8245
1.82467
1.82482
1.82504
1.82555
1.82651
1.82806
1.83033
1.8334
1.8373
1.84208
1.8477
1.85414
1.86132
1.86922
1.87771
1.88673
1.89615
1.90588
1.91582
1.9259
1.93605
1.94621
1.95632
1.96636
1.9763
1.98616
1.99594
2.00574
2.01555
2.02552
2.03566
2.04613
2.05696
2.06829
2.08015
2.09268
2.10588
2.11988
2.13461
2.15021
2.16654
2.18379
2.20175
2.22061
2.24017
2.26059
2.28167
2.30356
2.32607
2.34934
2.3732
2.39781
2.42296
2.44884
2.47527
2.50248
2.53024
2.55881
2.58796
2.61801
2.64868
2.68032
2.71265
2.74603
2.78021
2.81551
2.85171
2.88913
2.92757
2.9673
3.00821
3.05045
3.09402
3.13897
3.18541
3.23324
3.28272
3.33362
3.3863
3.44045
3.49645
3.55403
3.61351
3.67471
3.73783
3.80287
3.86984
3.93895
4.01
4.08339
4.1588
4.2367
4.3168
4.39946
4.48458
4.57229
4.66279
4.75594
4.85218
4.95124
5.05353
5.15896
5.26766
5.37986
5.49545
5.61484
5.73793
5.86499
5.99622
6.13144
6.27126
6.41522
6.56405
6.71743
6.87588
7.03942
7.2083
7.38254
7.56263
7.74805
7.94013
8.13766
8.34241
8.5532
8.77125
8.99602
9.22825
9.46758
9.7154
9.97017
10.2344
10.506
10.787
11.0768
11.3757
11.6845
12.003
12.3302
12.6705
13.0185
13.3788
13.7484
14.127
14.5151
14.9016
15.3011
1.82017
1.82306
1.8238
1.82426
1.82455
1.82486
1.82529
1.82606
1.82726
1.82902
1.83144
1.83457
1.83846
1.84314
1.84861
1.85487
1.86184
1.86951
1.87776
1.88652
1.8957
1.90519
1.91487
1.92472
1.93464
1.94462
1.95458
1.96452
1.97441
1.98427
1.99411
2.00402
2.01399
2.02417
2.03454
2.04526
2.05634
2.06792
2.08002
2.09275
2.10612
2.12025
2.13508
2.15076
2.16714
2.1844
2.20235
2.22118
2.24069
2.26104
2.28204
2.30384
2.32626
2.34943
2.37319
2.39769
2.42275
2.44855
2.47491
2.50206
2.52976
2.55831
2.58745
2.6175
2.64819
2.67986
2.71223
2.74567
2.77989
2.81526
2.85152
2.88901
2.92751
2.9673
3.00825
3.05056
3.09416
3.13916
3.18562
3.23348
3.28297
3.33389
3.38657
3.44071
3.49673
3.55429
3.6138
3.67498
3.73813
3.80315
3.87014
3.93924
4.01029
4.08371
4.15911
4.23707
4.31716
4.39988
4.48499
4.57276
4.6633
4.75651
4.85282
4.95191
5.0543
5.15977
5.26858
5.38086
5.49652
5.61603
5.73917
5.86636
5.99764
6.13296
6.2729
6.41693
6.56589
6.71935
6.87792
7.04161
7.21054
7.38494
7.56508
7.75061
7.94277
8.14032
8.34517
8.55593
8.77401
8.9989
9.23113
9.47068
9.71858
9.97333
10.2376
10.509
10.7902
11.0802
11.379
11.6883
12.0068
12.3344
12.6752
13.0238
13.3862
13.758
14.1378
14.527
14.9111
15.31
1.81994
1.82269
1.82342
1.82397
1.8244
1.82492
1.8256
1.82666
1.82812
1.83011
1.83268
1.83588
1.83976
1.84435
1.84967
1.85572
1.86246
1.86986
1.87783
1.88629
1.89516
1.90435
1.91376
1.92333
1.933
1.94276
1.95255
1.96237
1.9722
1.98207
1.99199
2.00203
2.01218
2.0226
2.03323
2.04424
2.05561
2.06747
2.07984
2.09279
2.10638
2.12066
2.13562
2.15138
2.16781
2.18509
2.20303
2.22183
2.24128
2.26155
2.28246
2.30415
2.32646
2.34952
2.37316
2.39754
2.4225
2.4482
2.47448
2.50155
2.5292
2.55772
2.58684
2.6169
2.64761
2.67932
2.71173
2.74524
2.77951
2.81497
2.85129
2.88887
2.92742
2.96731
3.00831
3.05069
3.09433
3.13939
3.18587
3.23377
3.28327
3.33421
3.3869
3.44104
3.49708
3.55462
3.61415
3.6753
3.73849
3.80349
3.8705
3.93959
4.01066
4.08409
4.1595
4.23751
4.31759
4.40039
4.4855
4.57336
4.66395
4.75722
4.85361
4.95273
5.05525
5.16075
5.26968
5.38206
5.49781
5.61748
5.74068
5.86804
5.99939
6.13485
6.27492
6.41903
6.56818
6.72174
6.88047
7.04432
7.21334
7.38799
7.56819
7.75393
7.94625
8.14389
8.34898
8.55981
8.77807
9.00313
9.23542
9.47523
9.72319
9.97809
10.2427
10.5142
10.7958
11.086
11.3851
11.6949
12.0135
12.3417
12.683
13.0308
13.392
13.763
14.1429
14.5337
14.9167
15.3162
1.81968
1.82227
1.823
1.82366
1.82425
1.825
1.82596
1.8273
1.82904
1.83126
1.834
1.83728
1.84114
1.84565
1.85081
1.85665
1.86314
1.87025
1.8779
1.88603
1.89456
1.90341
1.91251
1.9218
1.9312
1.94074
1.95034
1.96004
1.96981
1.97969
1.98969
1.99987
2.01023
2.02089
2.03179
2.04312
2.05479
2.06696
2.07961
2.09282
2.10662
2.12108
2.13618
2.15203
2.16852
2.18583
2.20376
2.22252
2.2419
2.26209
2.2829
2.30448
2.32667
2.34959
2.37311
2.39736
2.42221
2.44781
2.474
2.50099
2.52859
2.55707
2.58618
2.61624
2.64696
2.67872
2.71118
2.74475
2.7791
2.81464
2.85103
2.88871
2.92733
2.96732
3.00837
3.05084
3.09452
3.13965
3.18615
3.23411
3.28362
3.33458
3.38728
3.44143
3.49748
3.555
3.61456
3.67568
3.73891
3.80386
3.87093
3.93999
4.01109
4.08453
4.15995
4.23802
4.31809
4.40099
4.48609
4.57406
4.66468
4.75803
4.85451
4.95368
5.05633
5.16187
5.27094
5.3834
5.49927
5.61912
5.74238
5.86995
6.00136
6.137
6.2772
6.42143
6.57079
6.72445
6.88337
7.04741
7.21652
7.39145
7.57171
7.75771
7.9502
8.14796
8.35336
8.56426
8.78275
9.00803
9.24039
9.48059
9.72866
9.98385
10.2489
10.5204
10.8026
11.0929
11.3922
11.7026
12.0209
12.3498
12.6915
13.0391
13.4009
13.7722
14.1526
14.5456
14.9265
15.3257
1.81939
1.82183
1.82255
1.82333
1.82408
1.82507
1.82631
1.82796
1.82997
1.83241
1.83531
1.83868
1.84255
1.84697
1.85199
1.85762
1.86383
1.87064
1.87795
1.88574
1.8939
1.90241
1.91118
1.92017
1.92932
1.93862
1.94803
1.95761
1.96733
1.97722
1.98731
1.99763
2.00819
2.01911
2.0303
2.04193
2.05392
2.06639
2.07934
2.09281
2.10685
2.12149
2.13674
2.15269
2.16924
2.18657
2.20449
2.22321
2.24253
2.26263
2.28334
2.3048
2.32686
2.34965
2.37304
2.39716
2.42189
2.44738
2.47349
2.5004
2.52794
2.55638
2.58548
2.61554
2.64629
2.67809
2.7106
2.74425
2.77865
2.8143
2.85076
2.88854
2.92723
2.96732
3.00843
3.051
3.09471
3.13992
3.18645
3.23447
3.28399
3.33499
3.38769
3.44185
3.49791
3.55542
3.61501
3.67609
3.73936
3.80427
3.87139
3.94042
4.01156
4.08501
4.16044
4.23858
4.31864
4.40164
4.48675
4.57484
4.66548
4.75891
4.85549
4.95472
5.05753
5.1631
5.27234
5.38487
5.50088
5.6209
5.74423
5.87203
6.0035
6.13935
6.27969
6.42403
6.57363
6.7274
6.88656
7.05078
7.22001
7.39523
7.57552
7.76182
7.95449
8.15241
8.35815
8.5691
8.78791
9.01343
9.24589
9.48653
9.73469
9.99019
10.2556
10.5273
10.81
11.1004
11.3999
11.7109
12.0291
12.3587
12.701
13.0485
13.4113
13.7828
14.1628
14.5572
14.9341
15.333
1.8191
1.82138
1.8221
1.82298
1.82389
1.82512
1.82665
1.82859
1.83086
1.83353
1.83659
1.84004
1.84392
1.84828
1.85316
1.85857
1.86453
1.87102
1.87799
1.88541
1.89322
1.90137
1.90981
1.91851
1.92739
1.93648
1.94571
1.95518
1.96484
1.97474
1.98492
1.99539
2.00615
2.01732
2.02878
2.04072
2.05301
2.0658
2.07903
2.09276
2.10704
2.12186
2.13727
2.15332
2.16994
2.1873
2.20521
2.2239
2.24314
2.26316
2.28375
2.3051
2.32703
2.34969
2.37295
2.39694
2.42156
2.44694
2.47295
2.49979
2.52729
2.55569
2.58477
2.61484
2.6456
2.67744
2.71
2.74372
2.7782
2.81394
2.85047
2.88837
2.92712
2.96733
3.00849
3.05116
3.09491
3.14021
3.18675
3.23484
3.28437
3.33541
3.38812
3.44228
3.49835
3.55585
3.61547
3.67651
3.73984
3.8047
3.87188
3.94087
4.01207
4.08552
4.16097
4.23916
4.31922
4.40234
4.48744
4.57568
4.66632
4.75987
4.85654
4.95584
5.05881
5.16441
5.27385
5.38644
5.50261
5.62279
5.74619
5.87424
6.00575
6.14184
6.28231
6.42679
6.57665
6.7305
6.88994
7.05434
7.22372
7.39925
7.57953
7.7662
7.95902
8.15711
8.36323
8.57421
8.7934
9.01916
9.25173
9.49289
9.74108
9.99695
10.2628
10.5345
10.818
11.1083
11.4081
11.7199
12.0378
12.3684
12.7112
13.0585
13.4225
13.794
14.1738
14.5703
14.9439
15.3418
1.81881
1.82093
1.82164
1.82261
1.82367
1.82514
1.82694
1.82918
1.8317
1.83458
1.83778
1.84133
1.84523
1.84953
1.85428
1.85949
1.86519
1.87138
1.87799
1.88507
1.89253
1.90032
1.90845
1.91685
1.92547
1.93435
1.94341
1.95278
1.96239
1.97231
1.98258
1.99319
2.00415
2.01556
2.02727
2.03952
2.05209
2.06518
2.0787
2.09268
2.10719
2.1222
2.13777
2.15392
2.17061
2.18799
2.20589
2.22455
2.24372
2.26366
2.28414
2.30538
2.32718
2.34971
2.37284
2.39671
2.42122
2.44649
2.47242
2.49919
2.52664
2.555
2.58407
2.61414
2.64493
2.6768
2.70942
2.74321
2.77775
2.81358
2.85019
2.88819
2.92702
2.96733
3.00854
3.05131
3.09511
3.14049
3.18706
3.23522
3.28476
3.33584
3.38854
3.44272
3.4988
3.55629
3.61593
3.67695
3.74032
3.80513
3.87238
3.94133
4.0126
4.08604
4.16154
4.23977
4.31983
4.40307
4.48816
4.57655
4.66719
4.76089
4.85763
4.957
5.06014
5.16576
5.27543
5.38807
5.50443
5.62477
5.74824
5.87654
6.00807
6.14444
6.28502
6.42967
6.57979
6.7337
6.89345
7.058
7.22754
7.40341
7.58369
7.77076
7.96368
8.16199
8.3685
8.57949
8.79913
9.02508
9.2578
9.49953
9.7477
10.004
10.2703
10.542
10.8263
11.1166
11.4167
11.7293
12.0469
12.3785
12.7217
13.0688
13.4344
13.8058
14.1854
14.5846
14.9537
15.3503
1.81855
1.82047
1.82119
1.82224
1.82345
1.82514
1.82719
1.8297
1.83245
1.83552
1.83886
1.84251
1.84643
1.8507
1.85534
1.86036
1.86581
1.8717
1.87798
1.88472
1.89184
1.8993
1.90711
1.91522
1.92359
1.93227
1.94119
1.95046
1.96003
1.96997
1.98032
1.99106
2.00221
2.01384
2.02581
2.03833
2.05118
2.06455
2.07834
2.09257
2.1073
2.12248
2.13821
2.15446
2.17122
2.18863
2.20653
2.22515
2.24426
2.26412
2.2845
2.30562
2.3273
2.3497
2.37272
2.39647
2.42087
2.44603
2.47189
2.49859
2.526
2.55433
2.58339
2.61345
2.64427
2.67618
2.70884
2.7427
2.77731
2.81323
2.84991
2.88801
2.92691
2.96732
3.0086
3.05147
3.09529
3.14077
3.18735
3.23558
3.28513
3.33627
3.38897
3.44318
3.49926
3.55674
3.6164
3.67739
3.74081
3.80557
3.8729
3.94179
4.01315
4.08657
4.16212
4.2404
4.32047
4.40384
4.48889
4.57745
4.66807
4.76195
4.85875
4.95821
5.06152
5.16716
5.27707
5.38974
5.50631
5.62678
5.75033
5.87891
6.01043
6.1471
6.28777
6.4326
6.583
6.73695
6.89704
7.06169
7.23141
7.40764
7.58791
7.77546
7.96843
8.16698
8.37391
8.58486
8.80501
9.03111
9.26399
9.50634
9.75442
10.0113
10.2779
10.5497
10.8348
11.1249
11.4256
11.739
12.0561
12.3889
12.7326
13.0793
13.4467
13.8179
14.1972
14.5997
14.9638
15.359
1.8183
1.82004
1.82074
1.82185
1.82321
1.82512
1.82741
1.83016
1.83311
1.83636
1.83983
1.84357
1.84753
1.85176
1.8563
1.86115
1.86637
1.87199
1.87796
1.88437
1.89116
1.89829
1.90581
1.91364
1.92178
1.93028
1.93905
1.94825
1.95779
1.96774
1.97818
1.98903
2.00036
2.0122
2.02439
2.03718
2.05028
2.06392
2.07796
2.09242
2.10737
2.12272
2.1386
2.15494
2.17178
2.18922
2.20711
2.22571
2.24475
2.26454
2.28481
2.30583
2.32739
2.34967
2.37258
2.39622
2.42052
2.44559
2.47138
2.49801
2.52539
2.55368
2.58273
2.6128
2.64364
2.67558
2.70829
2.74221
2.77689
2.81289
2.84964
2.88784
2.9268
2.96731
3.00864
3.05161
3.09547
3.14103
3.18763
3.23593
3.28548
3.33669
3.38939
3.44364
3.49971
3.5572
3.61687
3.67783
3.7413
3.80601
3.87342
3.94226
4.01371
4.0871
4.16272
4.24104
4.32113
4.40462
4.48964
4.57838
4.66898
4.76305
4.85988
4.95945
5.06292
5.16859
5.27876
5.39142
5.50824
5.62881
5.75246
5.8813
6.0128
6.14981
6.29052
6.43556
6.58623
6.74021
6.9007
7.0654
7.23533
7.4119
7.59215
7.78024
7.9732
8.17205
8.37937
8.59025
8.81099
9.03717
9.27024
9.51325
9.76116
10.0186
10.2857
10.5574
10.8436
11.1333
11.4346
11.7489
12.0654
12.3995
12.7436
13.0898
13.4592
13.8301
14.2092
14.6154
14.9738
15.3676
1.81811
1.81962
1.82029
1.82146
1.82298
1.82508
1.82759
1.83056
1.83368
1.83708
1.84068
1.84451
1.8485
1.85271
1.85717
1.86186
1.86688
1.87224
1.87791
1.88403
1.8905
1.89733
1.90457
1.91213
1.92006
1.92838
1.93702
1.94616
1.95567
1.96565
1.97617
1.98712
1.99861
2.01065
2.02305
2.03608
2.04941
2.0633
2.07757
2.09224
2.1074
2.1229
2.13893
2.15536
2.17228
2.18974
2.20764
2.22621
2.24519
2.26491
2.28509
2.30601
2.32745
2.34963
2.37243
2.39596
2.42017
2.44516
2.47089
2.49746
2.5248
2.55306
2.58211
2.61218
2.64304
2.67501
2.70777
2.74174
2.77649
2.81256
2.84938
2.88766
2.92669
2.9673
3.00868
3.05174
3.09563
3.14128
3.18789
3.23627
3.28582
3.33708
3.38977
3.44407
3.50014
3.55764
3.61733
3.67827
3.74179
3.80645
3.87395
3.94272
4.01428
4.08764
4.16335
4.24169
4.3218
4.40539
4.49039
4.57934
4.66991
4.76419
4.86104
4.96073
5.06436
5.17004
5.28047
5.3931
5.51019
5.63084
5.75459
5.88369
6.01515
6.15255
6.29327
6.43854
6.58944
6.74344
6.90438
7.0691
7.23929
7.41617
7.59635
7.78501
7.97794
8.17715
8.38482
8.59559
8.81702
9.04319
9.2765
9.52017
9.76783
10.0261
10.2934
10.5652
10.8524
11.1416
11.4436
11.7589
12.0746
12.4103
12.7547
13.1003
13.472
13.8423
14.2211
14.6316
14.9836
15.3761
1.81791
1.81922
1.81986
1.82107
1.82276
1.82503
1.82772
1.83087
1.83416
1.83771
1.84142
1.84533
1.84935
1.85355
1.85793
1.86248
1.86732
1.87246
1.87785
1.8837
1.88988
1.89641
1.90339
1.9107
1.91842
1.92659
1.93511
1.9442
1.95368
1.96369
1.97428
1.98534
1.99698
2.00918
2.02177
2.03503
2.04857
2.06269
2.07716
2.09204
2.10739
2.12303
2.1392
2.15572
2.17271
2.1902
2.2081
2.22665
2.24558
2.26523
2.28532
2.30615
2.32749
2.34958
2.37227
2.3957
2.41983
2.44474
2.47041
2.49693
2.52424
2.55247
2.58152
2.61159
2.64247
2.67447
2.70728
2.7413
2.7761
2.81224
2.84913
2.88749
2.92658
2.96728
3.0087
3.05185
3.09578
3.14151
3.18813
3.2366
3.28613
3.33744
3.39011
3.44446
3.50053
3.55807
3.61777
3.6787
3.74227
3.80689
3.87448
3.94318
4.01486
4.08817
4.16398
4.24234
4.32249
4.40617
4.49114
4.58031
4.67083
4.76535
4.8622
4.96206
5.06581
5.1715
5.28219
5.39476
5.51216
5.63284
5.75673
5.88607
6.01748
6.1553
6.296
6.44152
6.59263
6.74662
6.90804
7.07271
7.24324
7.42038
7.60045
7.78975
7.98257
8.18222
8.39021
8.60085
8.82303
9.04912
9.28271
9.52706
9.7744
10.0335
10.301
10.5729
10.8612
11.1498
11.4527
11.7689
12.0837
12.421
12.7657
13.1106
13.4848
13.8542
14.2329
14.648
14.993
15.3843
1.81774
1.81883
1.81944
1.82068
1.82255
1.82497
1.82781
1.83112
1.83454
1.83822
1.84205
1.84604
1.85009
1.85428
1.8586
1.86302
1.86771
1.87264
1.87778
1.88337
1.88928
1.89554
1.90228
1.90936
1.91689
1.92492
1.93332
1.94237
1.95183
1.96186
1.97254
1.98368
1.99546
2.00782
2.02058
2.03404
2.04776
2.0621
2.07676
2.09182
2.10734
2.12311
2.13941
2.15601
2.17308
2.1906
2.20851
2.22703
2.24591
2.26551
2.28551
2.30626
2.3275
2.3495
2.3721
2.39544
2.4195
2.44434
2.46996
2.49642
2.52371
2.55192
2.58097
2.61104
2.64195
2.67397
2.70681
2.74088
2.77574
2.81195
2.84889
2.88733
2.92648
2.96725
3.00872
3.05196
3.09591
3.14172
3.18836
3.2369
3.28641
3.33779
3.39043
3.44483
3.50088
3.55847
3.61818
3.67912
3.74273
3.80731
3.875
3.94364
4.01545
4.08869
4.16462
4.24297
4.3232
4.40697
4.49192
4.58128
4.67173
4.76651
4.86334
4.96337
5.06723
5.17294
5.28389
5.39639
5.51412
5.63479
5.75885
5.88841
6.01976
6.15803
6.29864
6.44447
6.59576
6.74973
6.91163
7.07619
7.24713
7.42449
7.60447
7.79444
7.98708
8.18721
8.39549
8.60599
8.82901
9.0549
9.28886
9.53387
9.78081
10.0409
10.3085
10.5805
10.87
11.1578
11.4618
11.7789
12.0925
12.4317
12.7766
13.1207
13.4977
13.8658
14.2445
14.6647
15.0021
15.3919
1.8176
1.81844
1.81903
1.8203
1.82234
1.8249
1.82785
1.8313
1.83484
1.83864
1.84257
1.84664
1.85071
1.8549
1.85917
1.86348
1.86804
1.87278
1.87769
1.88306
1.88872
1.89472
1.90124
1.9081
1.91547
1.92336
1.93165
1.94067
1.95012
1.96018
1.97093
1.98214
1.99406
2.00655
2.01946
2.03311
2.04699
2.06153
2.07635
2.09158
2.10725
2.12314
2.13958
2.15625
2.17339
2.19094
2.20886
2.22736
2.2462
2.26574
2.28566
2.30634
2.3275
2.34941
2.37192
2.39519
2.41917
2.44395
2.46953
2.49594
2.52321
2.5514
2.58046
2.61052
2.64145
2.6735
2.70638
2.74049
2.7754
2.81166
2.84867
2.88717
2.92637
2.96723
3.00874
3.05205
3.09603
3.14192
3.18858
3.23717
3.28668
3.33812
3.39075
3.44519
3.50123
3.55885
3.61856
3.67952
3.74316
3.80771
3.8755
3.94408
4.01604
4.08919
4.16524
4.24358
4.3239
4.40776
4.49271
4.58224
4.67261
4.76764
4.86441
4.96463
5.06858
5.17435
5.28557
5.39797
5.51607
5.63669
5.76095
5.89072
6.02198
6.16069
6.30117
6.44737
6.59881
6.75277
6.91515
7.07955
7.25095
7.4285
7.60841
7.7991
7.99146
8.19214
8.40065
8.61102
8.83492
9.06051
9.29491
9.54058
9.78702
10.0482
10.3158
10.5879
10.8787
11.1654
11.4707
11.7887
12.1011
12.4424
12.7874
13.1305
13.5105
13.8771
14.2557
14.6816
15.0109
15.3987
1.81749
1.81806
1.81863
1.81992
1.82215
1.82483
1.82788
1.83144
1.83507
1.83898
1.843
1.84713
1.85124
1.85543
1.85966
1.86387
1.86831
1.87289
1.87759
1.88277
1.88819
1.89395
1.90027
1.90693
1.91414
1.92191
1.93011
1.9391
1.94854
1.95863
1.96945
1.98073
1.99277
2.00537
2.01843
2.03223
2.04626
2.06098
2.07595
2.09133
2.10714
2.12314
2.13969
2.15643
2.17364
2.19121
2.20915
2.22763
2.24643
2.26593
2.28578
2.30639
2.32747
2.34931
2.37173
2.39493
2.41886
2.44358
2.46911
2.49549
2.52274
2.55091
2.57997
2.61004
2.64099
2.67306
2.70598
2.74013
2.77508
2.8114
2.84846
2.88702
2.92627
2.9672
3.00875
3.05213
3.09614
3.1421
3.18877
3.23742
3.28695
3.33845
3.39108
3.44557
3.50158
3.55923
3.61894
3.67991
3.74359
3.80811
3.87599
3.94451
4.01661
4.08967
4.16587
4.24417
4.32458
4.40851
4.49348
4.5832
4.67348
4.76876
4.86545
4.96588
5.06989
5.17572
5.2872
5.39951
5.51799
5.63854
5.76301
5.89296
6.02416
6.1633
6.30362
6.45023
6.60179
6.75575
6.91862
7.0828
7.25473
7.43237
7.61224
7.80367
7.99566
8.19696
8.40565
8.6159
8.84076
9.06591
9.30085
9.54714
9.79301
10.0553
10.3228
10.5951
10.8873
11.1728
11.4795
11.7983
12.1093
12.4528
12.7979
13.1399
13.5233
13.8879
14.2666
14.6985
15.0192
15.4044
1.81739
1.81771
1.81825
1.81955
1.82196
1.82472
1.82786
1.83153
1.83525
1.83924
1.84335
1.84754
1.85167
1.85587
1.86006
1.86419
1.86854
1.87297
1.87749
1.88249
1.88768
1.89323
1.89937
1.90584
1.91292
1.92058
1.92868
1.93766
1.94709
1.95721
1.96809
1.97943
1.99158
2.00429
2.01747
2.03142
2.04557
2.06045
2.07555
2.09107
2.10701
2.12311
2.13976
2.15656
2.17384
2.19144
2.20939
2.22786
2.24662
2.26608
2.28586
2.30642
2.32742
2.34919
2.37155
2.39469
2.41856
2.44323
2.46872
2.49507
2.5223
2.55045
2.57952
2.60959
2.64057
2.67265
2.70561
2.73978
2.77479
2.81115
2.84826
2.88688
2.92618
2.96716
3.00876
3.05221
3.09624
3.14227
3.18894
3.23766
3.2872
3.33877
3.39141
3.44595
3.50193
3.55962
3.61931
3.6803
3.74402
3.80851
3.87648
3.94493
4.01718
4.09016
4.16653
4.24476
4.32525
4.40922
4.49421
4.58414
4.67433
4.76988
4.86647
4.96715
5.07118
5.17707
5.2888
5.40099
5.51989
5.64032
5.76501
5.8951
6.02627
6.16589
6.306
6.45304
6.60465
6.75864
6.92201
7.08593
7.25841
7.43609
7.61595
7.80811
7.99966
8.20168
8.41047
8.62062
8.84649
9.0711
9.30667
9.55351
9.79876
10.0624
10.3296
10.6022
10.8958
11.1798
11.4882
11.8078
12.1172
12.4632
12.8081
13.1489
13.536
13.8983
14.277
14.7154
15.0271
15.4092
1.8173
1.81739
1.81788
1.81919
1.82176
1.82457
1.8278
1.83157
1.83537
1.83944
1.84362
1.84786
1.85201
1.85622
1.86039
1.86445
1.86872
1.87302
1.87737
1.88221
1.88721
1.89256
1.89854
1.90483
1.91179
1.91935
1.92737
1.93634
1.94576
1.9559
1.96684
1.97824
1.9905
2.00329
2.01658
2.03066
2.04492
2.05995
2.07516
2.09081
2.10685
2.12305
2.1398
2.15664
2.174
2.19161
2.20958
2.22804
2.24677
2.2662
2.28591
2.30643
2.32735
2.34906
2.37136
2.39445
2.41827
2.44289
2.46836
2.49467
2.5219
2.55003
2.57911
2.60917
2.64018
2.67227
2.70526
2.73947
2.77452
2.81092
2.84807
2.88675
2.92609
2.96713
3.00876
3.05227
3.09633
3.14243
3.18908
3.2379
3.28742
3.33907
3.39167
3.44629
3.50225
3.55999
3.61967
3.68068
3.74442
3.80891
3.87699
3.94535
4.01775
4.09064
4.1672
4.24534
4.32596
4.40991
4.49495
4.58505
4.67513
4.77097
4.86747
4.96842
5.07244
5.1784
5.29034
5.40242
5.52174
5.64201
5.76698
5.89715
6.02829
6.16841
6.30828
6.45576
6.60737
6.76142
6.92529
7.08891
7.26198
7.43964
7.61953
7.81242
8.00346
8.20627
8.41509
8.62516
8.85209
9.07604
9.31235
9.55969
9.80428
10.0693
10.3361
10.6091
10.9041
11.1864
11.4966
11.817
12.1246
12.4733
12.818
13.1575
13.5484
13.9081
14.2869
14.7323
15.0346
15.413
1.81725
1.81708
1.81751
1.81884
1.82156
1.82439
1.82769
1.83156
1.83545
1.83957
1.84383
1.84811
1.85228
1.85651
1.86065
1.86465
1.86885
1.87304
1.87724
1.88195
1.88677
1.89194
1.89778
1.90391
1.91076
1.91822
1.92617
1.93514
1.94454
1.95471
1.96571
1.97715
1.9895
2.00238
2.01576
2.02995
2.04431
2.05947
2.07478
2.09054
2.10669
2.12296
2.13979
2.15669
2.17411
2.19174
2.20972
2.22817
2.24689
2.26628
2.28594
2.30642
2.32727
2.34893
2.37117
2.39421
2.41799
2.44257
2.46801
2.4943
2.52152
2.54964
2.57872
2.60879
2.63981
2.67192
2.70495
2.73918
2.77427
2.8107
2.8479
2.88662
2.92601
2.9671
3.00876
3.05233
3.09641
3.14257
3.18922
3.23812
3.2876
3.33933
3.39189
3.4466
3.50252
3.56034
3.61999
3.68106
3.74479
3.80929
3.87746
3.94575
4.0183
4.0911
4.16784
4.24589
4.32669
4.4106
4.49572
4.58591
4.67591
4.77204
4.86841
4.96962
5.07362
5.17969
5.29182
5.40379
5.52355
5.64362
5.76891
5.89913
6.03021
6.17082
6.31043
6.45837
6.60995
6.76409
6.92849
7.09175
7.26546
7.44304
7.62301
7.81662
8.00708
8.21075
8.41949
8.62952
8.85754
9.08073
9.31787
9.56564
9.80953
10.0761
10.3423
10.6157
10.9122
11.1926
11.5049
11.826
12.1317
12.4832
12.8275
13.1657
13.5607
13.9175
14.2964
14.7491
15.0417
15.4161
1.8172
1.81679
1.81717
1.8185
1.82136
1.8242
1.82757
1.83152
1.83548
1.83966
1.84399
1.8483
1.85248
1.85673
1.86086
1.8648
1.86895
1.87304
1.8771
1.88169
1.88635
1.89136
1.89708
1.90305
1.90982
1.9172
1.92507
1.93404
1.94343
1.95362
1.96467
1.97615
1.9886
2.00154
2.01501
2.0293
2.04374
2.05902
2.07442
2.09027
2.10651
2.12285
2.13978
2.1567
2.17419
2.19183
2.20983
2.22827
2.24696
2.26633
2.28595
2.30639
2.32718
2.3488
2.37099
2.39399
2.41772
2.44227
2.46769
2.49395
2.52116
2.54927
2.57836
2.60843
2.63948
2.67159
2.70465
2.73891
2.77403
2.8105
2.84774
2.8865
2.92593
2.96707
3.00876
3.05238
3.09648
3.1427
3.18935
3.23831
3.28776
3.33957
3.39208
3.44688
3.50277
3.56067
3.62028
3.68142
3.74514
3.80967
3.87789
3.94612
4.01883
4.09151
4.16842
4.24639
4.32739
4.41127
4.49647
4.58674
4.6767
4.7731
4.86928
4.97075
5.07471
5.18092
5.29323
5.40509
5.52531
5.64514
5.77079
5.90103
6.03206
6.17314
6.31245
6.46094
6.61242
6.76668
6.9316
7.09446
7.26888
7.44629
7.62638
7.82069
8.01054
8.21513
8.42368
8.6337
8.86283
9.08516
9.32325
9.57136
9.81452
10.0827
10.3481
10.6221
10.92
11.1985
11.5129
11.8347
12.1384
12.4929
12.8366
13.1735
13.5728
13.9263
14.3053
14.7657
15.0484
15.4184
1.81716
1.81652
1.81685
1.81817
1.82115
1.824
1.82744
1.83147
1.83548
1.8397
1.84409
1.84844
1.85262
1.85689
1.86101
1.8649
1.86901
1.87302
1.87695
1.88145
1.88596
1.89083
1.89643
1.90227
1.90895
1.91626
1.92407
1.93304
1.94241
1.95263
1.96373
1.97524
1.98777
2.00077
2.01432
2.0287
2.0432
2.0586
2.07406
2.09001
2.10632
2.12273
2.13974
2.15669
2.17423
2.19189
2.20991
2.22834
2.24701
2.26636
2.28593
2.30634
2.32708
2.34867
2.37081
2.39377
2.41747
2.44199
2.46738
2.49363
2.52083
2.54893
2.57803
2.6081
2.63917
2.67129
2.70439
2.73866
2.77382
2.81031
2.84759
2.88639
2.92585
2.96703
3.00876
3.05243
3.09654
3.14281
3.18947
3.23848
3.28791
3.3398
3.39227
3.44714
3.50299
3.56098
3.62056
3.68176
3.74548
3.81004
3.8783
3.94647
4.01934
4.09189
4.16898
4.24686
4.32805
4.41191
4.49718
4.58753
4.67747
4.77415
4.87013
4.97186
5.07575
5.18212
5.29458
5.40633
5.52701
5.64658
5.7726
5.90283
6.03387
6.17541
6.31439
6.46348
6.61479
6.76917
6.93456
7.09703
7.27223
7.44936
7.62959
7.82459
8.01381
8.2194
8.42767
8.63771
8.86797
9.08931
9.32848
9.57686
9.81927
10.0891
10.3536
10.6283
10.9277
11.2039
11.5207
11.8432
12.1446
12.5024
12.8454
13.1809
13.5847
13.9346
14.3136
14.7821
15.0547
15.4203
1.81713
1.81626
1.81655
1.81786
1.82093
1.82379
1.82729
1.83139
1.83545
1.83971
1.84415
1.84852
1.85272
1.85701
1.86112
1.86497
1.86904
1.87297
1.87679
1.88122
1.88559
1.89033
1.89584
1.90155
1.90816
1.9154
1.92316
1.93213
1.94149
1.95173
1.96287
1.97441
1.98702
2.00006
2.01368
2.02814
2.0427
2.05819
2.07372
2.08975
2.10613
2.12259
2.13968
2.15666
2.17425
2.19191
2.20996
2.22838
2.24704
2.26637
2.2859
2.30628
2.32697
2.34853
2.37063
2.39356
2.41723
2.44172
2.4671
2.49332
2.52053
2.54862
2.57773
2.60779
2.63888
2.67102
2.70414
2.73842
2.77362
2.81014
2.84745
2.88628
2.92578
2.96699
3.00875
3.05246
3.09659
3.14291
3.18958
3.23864
3.28805
3.34
3.39246
3.44739
3.50321
3.56126
3.62082
3.68208
3.7458
3.81039
3.87869
3.94685
4.01985
4.09228
4.16955
4.24734
4.32868
4.41253
4.49786
4.58829
4.6782
4.77515
4.87097
4.973
5.07677
5.18329
5.29588
5.40753
5.52865
5.64795
5.77435
5.90452
6.03561
6.17761
6.31624
6.46596
6.61703
6.77153
6.93734
7.09942
7.27546
7.45225
7.63264
7.82831
8.01686
8.22353
8.43144
8.64156
8.87295
9.09322
9.33356
9.58213
9.82382
10.0954
10.3589
10.6342
10.9352
11.209
11.5283
11.8513
12.1505
12.5116
12.8538
13.1878
13.5963
13.9425
14.3214
14.7983
15.0605
15.4217
1.81711
1.81603
1.81625
1.81755
1.8207
1.82358
1.82712
1.83129
1.83539
1.83967
1.84418
1.84858
1.85277
1.85708
1.86119
1.865
1.86905
1.8729
1.87662
1.88099
1.88524
1.88987
1.89529
1.90089
1.90744
1.91462
1.92232
1.93131
1.94065
1.95091
1.96209
1.97365
1.98634
1.99942
2.01309
2.02762
2.04223
2.05782
2.07339
2.0895
2.10593
2.12245
2.1396
2.15661
2.17424
2.19191
2.20998
2.22839
2.24704
2.26635
2.28584
2.3062
2.32686
2.34839
2.37045
2.39336
2.41699
2.44147
2.46683
2.49304
2.52024
2.54832
2.57744
2.60751
2.63862
2.67076
2.70391
2.73821
2.77344
2.80997
2.84732
2.88617
2.9257
2.96696
3.00874
3.05249
3.09664
3.143
3.18967
3.23878
3.28819
3.34018
3.39264
3.44764
3.50342
3.56154
3.62106
3.6824
3.7461
3.81071
3.87908
3.94724
4.02038
4.09268
4.17014
4.24781
4.3293
4.41311
4.49854
4.58906
4.67888
4.7761
4.87176
4.97412
5.07776
5.18444
5.29713
5.40868
5.53024
5.64924
5.77606
5.90609
6.03723
6.17968
6.31798
6.46831
6.61915
6.77384
6.94003
7.10167
7.27856
7.45497
7.63557
7.83187
8.01975
8.22752
8.43499
8.64524
8.87776
9.09689
9.33846
9.58713
9.8281
10.1014
10.3637
10.6399
10.9424
11.2137
11.5357
11.8592
12.156
12.5206
12.8619
13.1944
13.6078
13.9498
14.3288
14.8144
15.0659
15.4229
1.81709
1.81581
1.81595
1.81724
1.82046
1.82337
1.82695
1.83117
1.83532
1.83961
1.84417
1.84859
1.85279
1.85712
1.86122
1.865
1.86904
1.87282
1.87644
1.88077
1.88491
1.88944
1.89479
1.90029
1.90679
1.9139
1.92156
1.93056
1.93989
1.95017
1.96138
1.97296
1.98571
1.99882
2.01256
2.02714
2.04179
2.05746
2.07308
2.08926
2.10574
2.1223
2.13951
2.15654
2.17422
2.19189
2.20998
2.22838
2.24703
2.26632
2.28578
2.30612
2.32674
2.34825
2.37028
2.39316
2.41677
2.44123
2.46658
2.49278
2.51998
2.54805
2.57718
2.60725
2.63837
2.67052
2.70369
2.738
2.77326
2.80982
2.8472
2.88607
2.92563
2.96692
3.00872
3.05251
3.09667
3.14307
3.18976
3.23891
3.28832
3.34037
3.39281
3.44787
3.50362
3.56181
3.6213
3.68271
3.74638
3.81103
3.87946
3.94761
4.02086
4.09306
4.17071
4.24826
4.3299
4.41366
4.49924
4.58984
4.67955
4.777
4.87249
4.97519
5.0787
5.18556
5.2983
5.40977
5.53177
5.65046
5.77773
5.90758
6.03877
6.18166
6.3196
6.47058
6.62116
6.77614
6.94267
7.10385
7.28157
7.45756
7.63845
7.83532
8.02249
8.23141
8.43834
8.64878
8.88241
9.10037
9.34324
9.59191
9.83219
10.1074
10.3683
10.6454
10.9495
11.2181
11.5427
11.8668
12.1611
12.5293
12.8695
13.2006
13.6188
13.9565
14.3356
14.8299
15.071
15.4239
1.81707
1.8156
1.81566
1.81695
1.82022
1.82316
1.82677
1.83104
1.83522
1.83954
1.84414
1.84858
1.85278
1.85714
1.86123
1.86497
1.86901
1.87273
1.87627
1.88056
1.8846
1.88904
1.89433
1.89973
1.9062
1.91326
1.92087
1.92988
1.9392
1.94949
1.96073
1.97232
1.98514
1.99828
2.01206
2.0267
2.04138
2.05713
2.07278
2.08902
2.10555
2.12215
2.1394
2.15646
2.17418
2.19185
2.20996
2.22835
2.24699
2.26628
2.2857
2.30604
2.32662
2.34812
2.37011
2.39297
2.41656
2.441
2.46634
2.49253
2.51973
2.5478
2.57694
2.607
2.63815
2.6703
2.70349
2.73782
2.7731
2.80967
2.84708
2.88598
2.92557
2.96687
3.00871
3.05252
3.0967
3.14315
3.18983
3.23903
3.28844
3.34055
3.39293
3.44805
3.5038
3.56207
3.62153
3.68301
3.74667
3.81137
3.8798
3.94793