/*--------------------------------*- C++ -*----------------------------------*\
| =========                 |                                                 |
| \\      /  F ield         | OpenFOAM: The Open Source CFD Toolbox           |
|  \\    /   O peration     | Version:  v2012                                 |
|   \\  /    A nd           | Website:  www.openfoam.com                      |
|    \\/     M anipulation  |                                                 |
\*---------------------------------------------------------------------------*/
FoamFile
{
    version     2.0;
    format      ascii;
    class       volVectorField;
    location    "0.08";
    object      U_0;
}
// * * * * * * * * * * * * * * * * * * * * * * * * * * * * * * * * * * * * * //

dimensions      [0 1 -1 0 0 0 0];


internalField   nonuniform List<vector> 
18000
(
(190.879 -0.0309542 0)
(191.027 -0.0292851 0)
(191.108 -0.0351586 0)
(191.181 -0.0439754 0)
(191.263 -0.0548769 0)
(191.365 -0.066383 0)
(191.492 -0.0776128 0)
(191.649 -0.0869718 0)
(191.841 -0.0922633 0)
(192.063 -0.0930497 0)
(192.316 -0.0902345 0)
(192.598 -0.0855772 0)
(192.912 -0.0809388 0)
(193.261 -0.0770242 0)
(193.648 -0.0751123 0)
(194.075 -0.0748231 0)
(194.542 -0.0767962 0)
(195.051 -0.0798753 0)
(195.595 -0.083469 0)
(196.169 -0.0870511 0)
(196.766 -0.0910054 0)
(197.381 -0.0944205 0)
(198.008 -0.0991451 0)
(198.643 -0.105801 0)
(199.288 -0.115308 0)
(199.942 -0.127134 0)
(200.609 -0.141559 0)
(201.291 -0.15746 0)
(201.989 -0.174554 0)
(202.704 -0.191349 0)
(203.434 -0.207781 0)
(204.181 -0.222148 0)
(204.939 -0.235089 0)
(205.71 -0.245383 0)
(206.492 -0.254302 0)
(207.287 -0.261226 0)
(208.097 -0.267477 0)
(208.927 -0.272515 0)
(209.779 -0.277575 0)
(210.658 -0.281665 0)
(211.566 -0.286277 0)
(212.505 -0.289167 0)
(213.475 -0.292521 0)
(214.476 -0.293396 0)
(215.504 -0.294537 0)
(216.559 -0.29311 0)
(217.634 -0.29208 0)
(218.73 -0.289184 0)
(219.841 -0.287342 0)
(220.968 -0.284631 0)
(222.107 -0.283772 0)
(223.262 -0.282706 0)
(224.431 -0.283968 0)
(225.617 -0.285063 0)
(226.818 -0.2885 0)
(228.039 -0.291515 0)
(229.275 -0.296503 0)
(230.532 -0.300179 0)
(231.803 -0.305676 0)
(233.091 -0.30924 0)
(234.391 -0.314152 0)
(235.705 -0.316628 0)
(237.027 -0.320385 0)
(238.36 -0.321725 0)
(239.7 -0.324494 0)
(241.05 -0.325178 0)
(242.406 -0.327408 0)
(243.775 -0.328039 0)
(245.152 -0.330174 0)
(246.543 -0.331151 0)
(247.946 -0.333259 0)
(249.366 -0.334689 0)
(250.799 -0.336614 0)
(252.25 -0.338283 0)
(253.716 -0.33948 0)
(255.199 -0.340699 0)
(256.697 -0.340843 0)
(258.209 -0.341422 0)
(259.736 -0.340287 0)
(261.273 -0.339854 0)
(262.823 -0.3375 0)
(264.38 -0.335991 0)
(265.949 -0.332852 0)
(267.522 -0.330519 0)
(269.104 -0.327232 0)
(270.69 -0.324442 0)
(272.283 -0.321597 0)
(273.882 -0.318712 0)
(275.486 -0.316572 0)
(277.098 -0.313807 0)
(278.715 -0.312401 0)
(280.341 -0.309997 0)
(281.972 -0.308964 0)
(283.614 -0.307103 0)
(285.261 -0.30607 0)
(286.918 -0.304664 0)
(288.581 -0.303176 0)
(290.253 -0.301832 0)
(291.932 -0.299769 0)
(293.618 -0.29813 0)
(295.31 -0.295431 0)
(297.007 -0.293093 0)
(298.71 -0.289957 0)
(300.415 -0.286629 0)
(302.125 -0.28305 0)
(303.837 -0.278813 0)
(305.549 -0.274684 0)
(307.264 -0.269895 0)
(308.978 -0.265015 0)
(310.694 -0.260078 0)
(312.409 -0.254567 0)
(314.124 -0.24963 0)
(315.841 -0.243865 0)
(317.556 -0.2389 0)
(319.273 -0.233362 0)
(320.987 -0.2283 0)
(322.703 -0.222938 0)
(324.419 -0.217843 0)
(326.135 -0.21256 0)
(327.852 -0.207811 0)
(329.57 -0.202534 0)
(331.288 -0.198238 0)
(333.008 -0.19304 0)
(334.725 -0.189208 0)
(336.447 -0.18463 0)
(338.165 -0.18116 0)
(339.888 -0.177476 0)
(341.608 -0.174767 0)
(343.331 -0.172203 0)
(345.049 -0.170772 0)
(346.767 -0.16923 0)
(348.479 -0.16898 0)
(350.191 -0.167811 0)
(351.891 -0.167134 0)
(353.591 -0.164351 0)
(355.277 -0.160117 0)
(356.96 -0.153939 0)
(358.635 -0.146414 0)
(360.303 -0.137497 0)
(361.967 -0.128905 0)
(363.624 -0.118374 0)
(365.268 -0.109664 0)
(366.914 -0.0980606 0)
(368.539 -0.0890802 0)
(370.163 -0.0796449 0)
(371.769 -0.0720886 0)
(373.356 -0.0597555 0)
(374.932 -0.0473699 0)
(376.451 -0.0306635 0)
(377.974 -0.0191144 0)
(190.872 -0.0912915 0)
(191.021 -0.0900926 0)
(191.106 -0.108373 0)
(191.183 -0.133265 0)
(191.268 -0.16356 0)
(191.372 -0.195348 0)
(191.502 -0.22544 0)
(191.664 -0.247426 0)
(191.858 -0.256493 0)
(192.082 -0.252305 0)
(192.334 -0.237929 0)
(192.615 -0.219759 0)
(192.926 -0.203737 0)
(193.271 -0.192323 0)
(193.651 -0.189127 0)
(194.072 -0.192609 0)
(194.533 -0.203845 0)
(195.035 -0.218676 0)
(195.574 -0.235425 0)
(196.144 -0.251357 0)
(196.74 -0.26699 0)
(197.354 -0.282305 0)
(197.981 -0.301316 0)
(198.619 -0.325374 0)
(199.266 -0.35706 0)
(199.925 -0.394713 0)
(200.596 -0.439194 0)
(201.283 -0.487213 0)
(201.987 -0.537985 0)
(202.708 -0.587205 0)
(203.445 -0.634631 0)
(204.198 -0.675208 0)
(204.964 -0.71088 0)
(205.741 -0.737896 0)
(206.53 -0.760437 0)
(207.331 -0.776625 0)
(208.146 -0.790841 0)
(208.98 -0.801681 0)
(209.835 -0.812729 0)
(210.715 -0.821265 0)
(211.624 -0.831369 0)
(212.562 -0.837218 0)
(213.531 -0.844967 0)
(214.53 -0.846165 0)
(215.556 -0.848864 0)
(216.608 -0.844516 0)
(217.681 -0.84199 0)
(218.775 -0.834264 0)
(219.883 -0.830095 0)
(221.008 -0.82356 0)
(222.146 -0.822683 0)
(223.3 -0.821318 0)
(224.467 -0.826798 0)
(225.652 -0.831929 0)
(226.852 -0.844117 0)
(228.072 -0.854047 0)
(229.308 -0.870046 0)
(230.564 -0.882434 0)
(231.835 -0.8997 0)
(233.123 -0.910955 0)
(234.423 -0.92589 0)
(235.738 -0.933483 0)
(237.062 -0.944692 0)
(238.397 -0.948518 0)
(239.738 -0.956429 0)
(241.09 -0.957896 0)
(242.449 -0.963965 0)
(243.819 -0.965007 0)
(245.198 -0.970689 0)
(246.591 -0.972611 0)
(247.994 -0.978255 0)
(249.414 -0.981323 0)
(250.848 -0.986442 0)
(252.298 -0.990121 0)
(253.764 -0.993407 0)
(255.246 -0.996412 0)
(256.743 -0.99686 0)
(258.254 -0.998095 0)
(259.779 -0.994819 0)
(261.315 -0.993392 0)
(262.863 -0.986553 0)
(264.42 -0.982316 0)
(265.986 -0.973174 0)
(267.559 -0.966848 0)
(269.14 -0.957124 0)
(270.725 -0.949541 0)
(272.318 -0.940917 0)
(273.916 -0.933033 0)
(275.52 -0.926501 0)
(277.131 -0.918807 0)
(278.748 -0.914593 0)
(280.373 -0.907665 0)
(282.004 -0.904824 0)
(283.644 -0.899193 0)
(285.291 -0.896626 0)
(286.947 -0.892104 0)
(288.609 -0.888171 0)
(290.28 -0.88384 0)
(291.957 -0.878003 0)
(293.641 -0.87315 0)
(295.332 -0.8651 0)
(297.027 -0.858345 0)
(298.729 -0.848581 0)
(300.432 -0.838853 0)
(302.141 -0.827732 0)
(303.85 -0.815052 0)
(305.561 -0.802648 0)
(307.274 -0.788099 0)
(308.987 -0.773888 0)
(310.701 -0.758699 0)
(312.414 -0.742482 0)
(314.127 -0.72727 0)
(315.842 -0.709814 0)
(317.554 -0.694745 0)
(319.268 -0.67756 0)
(320.98 -0.662119 0)
(322.693 -0.645427 0)
(324.404 -0.629465 0)
(326.117 -0.613122 0)
(327.829 -0.597447 0)
(329.542 -0.58072 0)
(331.254 -0.565874 0)
(332.967 -0.548221 0)
(334.677 -0.534113 0)
(336.391 -0.51652 0)
(338.099 -0.502285 0)
(339.812 -0.485932 0)
(341.521 -0.471952 0)
(343.232 -0.456545 0)
(344.94 -0.441396 0)
(346.649 -0.422856 0)
(348.354 -0.405403 0)
(350.062 -0.38322 0)
(351.763 -0.36315 0)
(353.467 -0.341268 0)
(355.16 -0.320781 0)
(356.85 -0.300773 0)
(358.533 -0.28081 0)
(360.208 -0.259887 0)
(361.879 -0.240806 0)
(363.542 -0.218499 0)
(365.193 -0.199306 0)
(366.846 -0.175931 0)
(368.482 -0.150279 0)
(370.118 -0.123013 0)
(371.739 -0.098929 0)
(373.338 -0.073616 0)
(374.924 -0.0500631 0)
(376.443 -0.0271286 0)
(377.966 -0.0113845 0)
(190.856 -0.146383 0)
(191.002 -0.146263 0)
(191.085 -0.175091 0)
(191.162 -0.214167 0)
(191.247 -0.262292 0)
(191.352 -0.312935 0)
(191.484 -0.361087 0)
(191.649 -0.396026 0)
(191.848 -0.411087 0)
(192.078 -0.405821 0)
(192.337 -0.384879 0)
(192.623 -0.358047 0)
(192.938 -0.334347 0)
(193.286 -0.317483 0)
(193.669 -0.313273 0)
(194.09 -0.319415 0)
(194.55 -0.337892 0)
(195.051 -0.362032 0)
(195.587 -0.388796 0)
(196.155 -0.414876 0)
(196.747 -0.442264 0)
(197.357 -0.468116 0)
(197.98 -0.498701 0)
(198.614 -0.536449 0)
(199.257 -0.586098 0)
(199.911 -0.645175 0)
(200.579 -0.715355 0)
(201.262 -0.791384 0)
(201.961 -0.872046 0)
(202.679 -0.950409 0)
(203.413 -1.02593 0)
(204.165 -1.09046 0)
(204.93 -1.14728 0)
(205.709 -1.19018 0)
(206.5 -1.22625 0)
(207.305 -1.25217 0)
(208.124 -1.27516 0)
(208.963 -1.29291 0)
(209.822 -1.31098 0)
(210.706 -1.32501 0)
(211.617 -1.34155 0)
(212.558 -1.35143 0)
(213.529 -1.36436 0)
(214.53 -1.3669 0)
(215.557 -1.37197 0)
(216.61 -1.36569 0)
(217.684 -1.36243 0)
(218.778 -1.35064 0)
(219.888 -1.34456 0)
(221.014 -1.33443 0)
(222.152 -1.33326 0)
(223.306 -1.33112 0)
(224.474 -1.33988 0)
(225.659 -1.34798 0)
(226.859 -1.36707 0)
(228.078 -1.38363 0)
(229.313 -1.40968 0)
(230.567 -1.42958 0)
(231.836 -1.45704 0)
(233.123 -1.47489 0)
(234.422 -1.49885 0)
(235.736 -1.51107 0)
(237.058 -1.52914 0)
(238.393 -1.5352 0)
(239.735 -1.54791 0)
(241.088 -1.55009 0)
(242.447 -1.55986 0)
(243.819 -1.56126 0)
(245.199 -1.57037 0)
(246.593 -1.5731 0)
(247.998 -1.58217 0)
(249.42 -1.58672 0)
(250.854 -1.59497 0)
(252.306 -1.60045 0)
(253.772 -1.60597 0)
(255.254 -1.61068 0)
(256.751 -1.61149 0)
(258.263 -1.61334 0)
(259.788 -1.60829 0)
(261.324 -1.60607 0)
(262.873 -1.59525 0)
(264.429 -1.58868 0)
(265.996 -1.57408 0)
(267.569 -1.56422 0)
(269.151 -1.54849 0)
(270.737 -1.53656 0)
(272.331 -1.52239 0)
(273.929 -1.50985 0)
(275.535 -1.499 0)
(277.147 -1.48662 0)
(278.764 -1.47956 0)
(280.39 -1.46822 0)
(282.022 -1.46345 0)
(283.663 -1.45389 0)
(285.309 -1.44957 0)
(286.966 -1.4416 0)
(288.628 -1.43517 0)
(290.299 -1.42768 0)
(291.976 -1.41826 0)
(293.66 -1.41018 0)
(295.351 -1.39699 0)
(297.046 -1.38604 0)
(298.747 -1.37003 0)
(300.451 -1.35443 0)
(302.159 -1.33626 0)
(303.869 -1.31581 0)
(305.581 -1.29565 0)
(307.295 -1.27201 0)
(309.008 -1.24922 0)
(310.723 -1.22458 0)
(312.438 -1.19875 0)
(314.153 -1.17423 0)
(315.869 -1.14624 0)
(317.583 -1.12202 0)
(319.3 -1.09413 0)
(321.013 -1.06926 0)
(322.729 -1.04214 0)
(324.443 -1.01635 0)
(326.159 -0.990039 0)
(327.874 -0.96469 0)
(329.59 -0.93806 0)
(331.306 -0.91417 0)
(333.023 -0.886015 0)
(334.738 -0.86344 0)
(336.456 -0.835038 0)
(338.169 -0.811882 0)
(339.886 -0.784678 0)
(341.598 -0.760604 0)
(343.31 -0.734663 0)
(345.018 -0.710033 0)
(346.724 -0.68084 0)
(348.427 -0.653269 0)
(350.13 -0.617546 0)
(351.825 -0.584454 0)
(353.523 -0.547624 0)
(355.21 -0.513024 0)
(356.897 -0.478901 0)
(358.575 -0.444851 0)
(360.247 -0.410958 0)
(361.915 -0.379366 0)
(363.574 -0.34476 0)
(365.221 -0.314822 0)
(366.873 -0.282341 0)
(368.503 -0.249459 0)
(370.133 -0.212367 0)
(371.75 -0.175609 0)
(373.346 -0.136557 0)
(374.932 -0.0965671 0)
(376.443 -0.059198 0)
(377.968 -0.0313506 0)
(190.836 -0.195702 0)
(190.977 -0.197946 0)
(191.06 -0.236223 0)
(191.138 -0.286802 0)
(191.223 -0.350361 0)
(191.329 -0.417997 0)
(191.464 -0.482103 0)
(191.634 -0.528921 0)
(191.837 -0.550332 0)
(192.071 -0.545763 0)
(192.333 -0.52074 0)
(192.621 -0.487583 0)
(192.937 -0.457992 0)
(193.283 -0.436811 0)
(193.663 -0.43201 0)
(194.08 -0.440783 0)
(194.535 -0.466198 0)
(195.029 -0.49941 0)
(195.56 -0.536444 0)
(196.121 -0.572524 0)
(196.708 -0.610986 0)
(197.314 -0.647574 0)
(197.933 -0.689862 0)
(198.564 -0.740792 0)
(199.204 -0.807115 0)
(199.857 -0.885554 0)
(200.523 -0.978799 0)
(201.205 -1.07984 0)
(201.904 -1.18712 0)
(202.622 -1.29137 0)
(203.358 -1.39169 0)
(204.111 -1.47728 0)
(204.88 -1.55279 0)
(205.664 -1.60957 0)
(206.46 -1.65774 0)
(207.271 -1.69222 0)
(208.096 -1.7231 0)
(208.94 -1.74711 0)
(209.804 -1.77151 0)
(210.692 -1.79098 0)
(211.606 -1.81345 0)
(212.548 -1.82734 0)
(213.519 -1.84534 0)
(214.519 -1.84959 0)
(215.544 -1.85747 0)
(216.596 -1.85002 0)
(217.668 -1.84691 0)
(218.761 -1.83207 0)
(219.869 -1.82499 0)
(220.994 -1.81208 0)
(222.132 -1.81114 0)
(223.285 -1.80864 0)
(224.452 -1.82071 0)
(225.636 -1.83183 0)
(226.835 -1.85769 0)
(228.053 -1.88006 0)
(229.286 -1.91528 0)
(230.539 -1.94206 0)
(231.806 -1.97888 0)
(233.092 -2.00284 0)
(234.389 -2.03514 0)
(235.703 -2.05159 0)
(237.025 -2.07601 0)
(238.361 -2.08406 0)
(239.703 -2.10129 0)
(241.058 -2.10402 0)
(242.419 -2.11729 0)
(243.793 -2.11877 0)
(245.175 -2.1311 0)
(246.572 -2.13425 0)
(247.979 -2.14656 0)
(249.402 -2.15213 0)
(250.838 -2.16339 0)
(252.291 -2.17036 0)
(253.757 -2.1779 0)
(255.24 -2.18382 0)
(256.737 -2.18524 0)
(258.248 -2.18755 0)
(259.773 -2.18109 0)
(261.309 -2.17821 0)
(262.857 -2.16397 0)
(264.414 -2.15552 0)
(265.981 -2.13598 0)
(267.554 -2.12322 0)
(269.136 -2.10193 0)
(270.723 -2.08643 0)
(272.318 -2.06698 0)
(273.917 -2.05051 0)
(275.525 -2.03539 0)
(277.137 -2.01886 0)
(278.756 -2.009 0)
(280.383 -1.99356 0)
(282.016 -1.98698 0)
(283.658 -1.97346 0)
(285.305 -1.9676 0)
(286.962 -1.95593 0)
(288.624 -1.94737 0)
(290.296 -1.93657 0)
(291.974 -1.9239 0)
(293.658 -1.91249 0)
(295.349 -1.89429 0)
(297.044 -1.87943 0)
(298.746 -1.85738 0)
(300.45 -1.83655 0)
(302.159 -1.81173 0)
(303.869 -1.78427 0)
(305.582 -1.75696 0)
(307.296 -1.72478 0)
(309.01 -1.69419 0)
(310.727 -1.66055 0)
(312.442 -1.62603 0)
(314.16 -1.5928 0)
(315.877 -1.55515 0)
(317.593 -1.52254 0)
(319.311 -1.48465 0)
(321.026 -1.45118 0)
(322.743 -1.41431 0)
(324.458 -1.37934 0)
(326.174 -1.34373 0)
(327.891 -1.30906 0)
(329.607 -1.2731 0)
(331.323 -1.2403 0)
(333.039 -1.20207 0)
(334.753 -1.17116 0)
(336.469 -1.13195 0)
(338.18 -1.0998 0)
(339.895 -1.06113 0)
(341.603 -1.02606 0)
(343.312 -0.987862 0)
(345.017 -0.950977 0)
(346.718 -0.909952 0)
(348.417 -0.872347 0)
(350.115 -0.826567 0)
(351.807 -0.787293 0)
(353.504 -0.740698 0)
(355.19 -0.697301 0)
(356.879 -0.651906 0)
(358.561 -0.604882 0)
(360.235 -0.559047 0)
(361.907 -0.51286 0)
(363.566 -0.463621 0)
(365.216 -0.420239 0)
(366.866 -0.367544 0)
(368.492 -0.317555 0)
(370.122 -0.268436 0)
(371.743 -0.221732 0)
(373.342 -0.173154 0)
(374.937 -0.12066 0)
(376.443 -0.0718194 0)
(377.973 -0.037459 0)
(190.811 -0.238364 0)
(190.948 -0.244375 0)
(191.029 -0.291145 0)
(191.11 -0.351309 0)
(191.197 -0.428501 0)
(191.307 -0.511409 0)
(191.445 -0.590511 0)
(191.621 -0.648651 0)
(191.83 -0.677324 0)
(192.069 -0.675595 0)
(192.335 -0.649433 0)
(192.626 -0.612907 0)
(192.944 -0.580026 0)
(193.29 -0.55638 0)
(193.668 -0.551749 0)
(194.081 -0.563169 0)
(194.53 -0.595055 0)
(195.019 -0.636758 0)
(195.542 -0.683599 0)
(196.096 -0.729454 0)
(196.676 -0.778087 0)
(197.275 -0.824904 0)
(197.89 -0.878298 0)
(198.516 -0.941069 0)
(199.154 -1.0219 0)
(199.804 -1.11683 0)
(200.467 -1.22995 0)
(201.147 -1.35258 0)
(201.844 -1.48294 0)
(202.561 -1.60969 0)
(203.297 -1.73157 0)
(204.053 -1.83556 0)
(204.825 -1.92763 0)
(205.613 -1.99664 0)
(206.416 -2.05587 0)
(207.234 -2.09813 0)
(208.066 -2.13644 0)
(208.917 -2.16653 0)
(209.787 -2.19701 0)
(210.679 -2.22202 0)
(211.597 -2.25045 0)
(212.542 -2.26879 0)
(213.514 -2.29205 0)
(214.514 -2.29864 0)
(215.539 -2.30996 0)
(216.59 -2.30229 0)
(217.661 -2.30035 0)
(218.753 -2.28351 0)
(219.86 -2.27635 0)
(220.984 -2.2614 0)
(222.121 -2.2611 0)
(223.274 -2.25846 0)
(224.441 -2.27365 0)
(225.624 -2.28755 0)
(226.821 -2.31951 0)
(228.038 -2.34705 0)
(229.269 -2.39044 0)
(230.52 -2.42346 0)
(231.786 -2.4688 0)
(233.07 -2.49836 0)
(234.366 -2.53823 0)
(235.679 -2.55846 0)
(237.001 -2.5887 0)
(238.337 -2.59854 0)
(239.681 -2.62002 0)
(241.037 -2.62313 0)
(242.401 -2.63967 0)
(243.778 -2.64097 0)
(245.163 -2.65631 0)
(246.562 -2.65948 0)
(247.971 -2.67484 0)
(249.397 -2.68094 0)
(250.834 -2.69512 0)
(252.288 -2.70297 0)
(253.755 -2.71267 0)
(255.239 -2.7194 0)
(256.736 -2.72166 0)
(258.247 -2.72422 0)
(259.771 -2.71675 0)
(261.308 -2.71332 0)
(262.855 -2.69625 0)
(264.412 -2.68631 0)
(265.979 -2.66233 0)
(267.552 -2.64726 0)
(269.135 -2.62078 0)
(270.722 -2.60246 0)
(272.319 -2.57793 0)
(273.919 -2.55823 0)
(275.528 -2.53881 0)
(277.141 -2.51862 0)
(278.762 -2.50578 0)
(280.389 -2.48642 0)
(282.023 -2.47793 0)
(283.666 -2.46028 0)
(285.314 -2.45298 0)
(286.972 -2.4373 0)
(288.635 -2.42695 0)
(290.307 -2.41259 0)
(291.984 -2.39696 0)
(293.669 -2.38199 0)
(295.359 -2.35898 0)
(297.054 -2.34053 0)
(298.756 -2.31264 0)
(300.459 -2.28721 0)
(302.169 -2.25599 0)
(303.879 -2.22231 0)
(305.593 -2.18842 0)
(307.307 -2.14837 0)
(309.022 -2.11076 0)
(310.74 -2.06844 0)
(312.456 -2.02609 0)
(314.176 -1.98452 0)
(315.893 -1.93796 0)
(317.611 -1.89749 0)
(319.331 -1.85008 0)
(321.047 -1.8087 0)
(322.766 -1.76253 0)
(324.482 -1.719 0)
(326.2 -1.67477 0)
(327.918 -1.63117 0)
(329.634 -1.58662 0)
(331.353 -1.54502 0)
(333.068 -1.49731 0)
(334.783 -1.45844 0)
(336.5 -1.40895 0)
(338.21 -1.36865 0)
(339.926 -1.31947 0)
(341.635 -1.27506 0)
(343.346 -1.2267 0)
(345.053 -1.17961 0)
(346.757 -1.1284 0)
(348.46 -1.08123 0)
(350.161 -1.02481 0)
(351.854 -0.97691 0)
(353.549 -0.918999 0)
(355.232 -0.86566 0)
(356.918 -0.808872 0)
(358.595 -0.750014 0)
(360.265 -0.692967 0)
(361.935 -0.634432 0)
(363.591 -0.573337 0)
(365.243 -0.51867 0)
(366.896 -0.452929 0)
(368.529 -0.395467 0)
(370.168 -0.33789 0)
(371.789 -0.278731 0)
(373.385 -0.219848 0)
(374.981 -0.15474 0)
(376.473 -0.0947873 0)
(378 -0.0521143 0)
(190.783 -0.27537 0)
(190.916 -0.285839 0)
(190.994 -0.340066 0)
(191.079 -0.408097 0)
(191.168 -0.497054 0)
(191.281 -0.593337 0)
(191.424 -0.686222 0)
(191.605 -0.755124 0)
(191.819 -0.791728 0)
(192.063 -0.794607 0)
(192.334 -0.769872 0)
(192.629 -0.732524 0)
(192.948 -0.69872 0)
(193.295 -0.674425 0)
(193.671 -0.670881 0)
(194.08 -0.685271 0)
(194.524 -0.723479 0)
(195.005 -0.773276 0)
(195.521 -0.829534 0)
(196.067 -0.884819 0)
(196.639 -0.943181 0)
(197.231 -0.999576 0)
(197.84 -1.0633 0)
(198.463 -1.13678 0)
(199.096 -1.23044 0)
(199.744 -1.33949 0)
(200.404 -1.46969 0)
(201.083 -1.6107 0)
(201.779 -1.76074 0)
(202.496 -1.90679 0)
(203.233 -2.04715 0)
(203.991 -2.16705 0)
(204.767 -2.27367 0)
(205.561 -2.35331 0)
(206.369 -2.42259 0)
(207.195 -2.47179 0)
(208.034 -2.51701 0)
(208.892 -2.55289 0)
(209.768 -2.58916 0)
(210.666 -2.61977 0)
(211.588 -2.65406 0)
(212.535 -2.67729 0)
(213.508 -2.70597 0)
(214.508 -2.71552 0)
(215.533 -2.73084 0)
(216.583 -2.72385 0)
(217.652 -2.72401 0)
(218.743 -2.70614 0)
(219.848 -2.69979 0)
(220.972 -2.68354 0)
(222.108 -2.68437 0)
(223.261 -2.68191 0)
(224.426 -2.70013 0)
(225.608 -2.71664 0)
(226.805 -2.75408 0)
(228.02 -2.78633 0)
(229.25 -2.83682 0)
(230.499 -2.87543 0)
(231.763 -2.92849 0)
(233.045 -2.96311 0)
(234.34 -3.00974 0)
(235.651 -3.03333 0)
(236.973 -3.06891 0)
(238.31 -3.08038 0)
(239.655 -3.10587 0)
(241.014 -3.10923 0)
(242.379 -3.12889 0)
(243.759 -3.1298 0)
(245.146 -3.14801 0)
(246.549 -3.15085 0)
(247.961 -3.16913 0)
(249.389 -3.17528 0)
(250.827 -3.19228 0)
(252.284 -3.20051 0)
(253.751 -3.21242 0)
(255.236 -3.21949 0)
(256.732 -3.22279 0)
(258.244 -3.22536 0)
(259.768 -3.2173 0)
(261.304 -3.21336 0)
(262.851 -3.19401 0)
(264.407 -3.18287 0)
(265.974 -3.15501 0)
(267.547 -3.13819 0)
(269.131 -3.10692 0)
(270.719 -3.08647 0)
(272.317 -3.05699 0)
(273.918 -3.03481 0)
(275.528 -3.01109 0)
(277.142 -2.98788 0)
(278.766 -2.97189 0)
(280.394 -2.9489 0)
(282.03 -2.93839 0)
(283.673 -2.91659 0)
(285.322 -2.90799 0)
(286.982 -2.88801 0)
(288.644 -2.87615 0)
(290.317 -2.85782 0)
(291.993 -2.83951 0)
(293.679 -2.82082 0)
(295.369 -2.79336 0)
(297.064 -2.77162 0)
(298.766 -2.738 0)
(300.469 -2.70849 0)
(302.18 -2.67096 0)
(303.889 -2.63183 0)
(305.604 -2.59182 0)
(307.319 -2.54461 0)
(309.035 -2.50081 0)
(310.754 -2.45018 0)
(312.471 -2.4009 0)
(314.193 -2.35126 0)
(315.911 -2.29655 0)
(317.632 -2.24877 0)
(319.353 -2.19239 0)
(321.071 -2.14387 0)
(322.792 -2.08881 0)
(324.509 -2.03739 0)
(326.23 -1.98519 0)
(327.949 -1.9331 0)
(329.666 -1.88081 0)
(331.386 -1.8307 0)
(333.102 -1.77435 0)
(334.819 -1.728 0)
(336.536 -1.66879 0)
(338.248 -1.62122 0)
(339.965 -1.56227 0)
(341.674 -1.50962 0)
(343.386 -1.4523 0)
(345.095 -1.39588 0)
(346.798 -1.3356 0)
(348.504 -1.27918 0)
(350.203 -1.21219 0)
(351.898 -1.15553 0)
(353.594 -1.08616 0)
(355.277 -1.02344 0)
(356.965 -0.956027 0)
(358.642 -0.886392 0)
(360.314 -0.819544 0)
(361.988 -0.749947 0)
(363.643 -0.678021 0)
(365.299 -0.613146 0)
(366.953 -0.535653 0)
(368.581 -0.468473 0)
(370.213 -0.397064 0)
(371.828 -0.323015 0)
(373.42 -0.254579 0)
(375.022 -0.178334 0)
(376.501 -0.109589 0)
(378.028 -0.0616111 0)
(190.752 -0.307872 0)
(190.882 -0.322105 0)
(190.956 -0.382593 0)
(191.044 -0.457447 0)
(191.135 -0.556521 0)
(191.253 -0.664538 0)
(191.401 -0.770219 0)
(191.588 -0.849591 0)
(191.807 -0.894658 0)
(192.056 -0.903638 0)
(192.331 -0.882656 0)
(192.629 -0.846757 0)
(192.95 -0.814187 0)
(193.298 -0.791033 0)
(193.673 -0.789628 0)
(194.079 -0.807588 0)
(194.517 -0.85223 0)
(194.991 -0.90988 0)
(195.498 -0.975203 0)
(196.037 -1.03948 0)
(196.6 -1.10703 0)
(197.186 -1.1723 0)
(197.789 -1.24533 0)
(198.407 -1.3283 0)
(199.036 -1.43326 0)
(199.681 -1.55435 0)
(200.339 -1.69912 0)
(201.017 -1.85545 0)
(201.712 -2.02192 0)
(202.43 -2.18424 0)
(203.168 -2.34013 0)
(203.928 -2.47358 0)
(204.708 -2.59282 0)
(205.507 -2.68157 0)
(206.321 -2.75994 0)
(207.154 -2.81526 0)
(208.001 -2.86692 0)
(208.866 -2.90829 0)
(209.749 -2.95006 0)
(210.652 -2.98646 0)
(211.578 -3.02642 0)
(212.528 -3.05497 0)
(213.503 -3.08925 0)
(214.504 -3.10238 0)
(215.528 -3.12225 0)
(216.577 -3.11676 0)
(217.645 -3.11989 0)
(218.734 -3.10187 0)
(219.838 -3.09719 0)
(220.96 -3.08037 0)
(222.096 -3.08284 0)
(223.247 -3.08087 0)
(224.412 -3.1021 0)
(225.593 -3.12104 0)
(226.788 -3.16345 0)
(228.002 -3.19989 0)
(229.23 -3.25658 0)
(230.478 -3.30017 0)
(231.74 -3.3601 0)
(233.02 -3.39922 0)
(234.314 -3.45187 0)
(235.625 -3.47846 0)
(236.947 -3.51891 0)
(238.284 -3.53185 0)
(239.63 -3.56107 0)
(240.991 -3.56457 0)
(242.359 -3.58718 0)
(243.741 -3.58751 0)
(245.132 -3.60844 0)
(246.537 -3.61065 0)
(247.951 -3.63171 0)
(249.382 -3.63749 0)
(250.823 -3.65723 0)
(252.281 -3.66536 0)
(253.749 -3.67952 0)
(255.235 -3.68651 0)
(256.732 -3.69107 0)
(258.244 -3.69341 0)
(259.767 -3.68522 0)
(261.303 -3.6807 0)
(262.849 -3.65957 0)
(264.406 -3.6475 0)
(265.972 -3.6164 0)
(267.546 -3.59838 0)
(269.13 -3.56271 0)
(270.718 -3.54068 0)
(272.318 -3.50633 0)
(273.919 -3.4823 0)
(275.532 -3.45421 0)
(277.147 -3.42862 0)
(278.773 -3.40928 0)
(280.402 -3.38305 0)
(282.039 -3.37038 0)
(283.684 -3.34448 0)
(285.334 -3.3347 0)
(286.994 -3.31016 0)
(288.657 -3.29706 0)
(290.331 -3.27429 0)
(292.007 -3.25362 0)
(293.694 -3.23108 0)
(295.383 -3.19959 0)
(297.079 -3.17473 0)
(298.78 -3.1354 0)
(300.483 -3.10227 0)
(302.194 -3.05841 0)
(303.903 -3.01454 0)
(305.62 -2.96867 0)
(307.335 -2.91495 0)
(309.052 -2.86567 0)
(310.773 -2.80715 0)
(312.49 -2.7519 0)
(314.214 -2.69444 0)
(315.933 -2.63239 0)
(317.656 -2.57775 0)
(319.379 -2.51293 0)
(321.099 -2.45801 0)
(322.823 -2.3944 0)
(324.541 -2.33579 0)
(326.263 -2.27607 0)
(327.984 -2.21577 0)
(329.702 -2.15653 0)
(331.425 -2.09814 0)
(333.14 -2.03407 0)
(334.859 -1.98056 0)
(336.576 -1.91208 0)
(338.289 -1.85793 0)
(340.007 -1.78957 0)
(341.715 -1.72941 0)
(343.428 -1.66371 0)
(345.137 -1.59837 0)
(346.84 -1.52989 0)
(348.547 -1.46452 0)
(350.245 -1.38781 0)
(351.941 -1.3232 0)
(353.637 -1.2431 0)
(355.32 -1.17218 0)
(357.01 -1.09483 0)
(358.686 -1.01521 0)
(360.358 -0.939467 0)
(362.033 -0.85911 0)
(363.685 -0.777042 0)
(365.345 -0.702499 0)
(366.998 -0.61333 0)
(368.626 -0.536366 0)
(370.263 -0.45303 0)
(371.88 -0.367076 0)
(373.477 -0.289578 0)
(375.086 -0.199703 0)
(376.545 -0.12418 0)
(378.067 -0.0724264 0)
(190.721 -0.335855 0)
(190.846 -0.354001 0)
(190.916 -0.419325 0)
(191.006 -0.500028 0)
(191.1 -0.608033 0)
(191.225 -0.726771 0)
(191.379 -0.844465 0)
(191.572 -0.933605 0)
(191.795 -0.987026 0)
(192.047 -1.00307 0)
(192.325 -0.987799 0)
(192.625 -0.955277 0)
(192.949 -0.92582 0)
(193.297 -0.905482 0)
(193.672 -0.907334 0)
(194.075 -0.929639 0)
(194.508 -0.980972 0)
(194.976 -1.0463 0)
(195.475 -1.12037 0)
(196.005 -1.19301 0)
(196.56 -1.26898 0)
(197.138 -1.3425 0)
(197.734 -1.42383 0)
(198.347 -1.51511 0)
(198.973 -1.63002 0)
(199.615 -1.76131 0)
(200.271 -1.91841 0)
(200.947 -2.0873 0)
(201.642 -2.2673 0)
(202.361 -2.44317 0)
(203.101 -2.61187 0)
(203.864 -2.75679 0)
(204.647 -2.88687 0)
(205.451 -2.98339 0)
(206.271 -3.07005 0)
(207.111 -3.13074 0)
(207.964 -3.18845 0)
(208.837 -3.23502 0)
(209.727 -3.28202 0)
(210.636 -3.32426 0)
(211.567 -3.36972 0)
(212.52 -3.40392 0)
(213.497 -3.44389 0)
(214.498 -3.46115 0)
(215.522 -3.486 0)
(216.569 -3.4827 0)
(217.636 -3.4895 0)
(218.723 -3.47211 0)
(219.826 -3.4699 0)
(220.947 -3.45319 0)
(222.081 -3.45783 0)
(223.232 -3.4567 0)
(224.395 -3.48095 0)
(225.576 -3.50224 0)
(226.77 -3.54915 0)
(227.982 -3.58928 0)
(229.209 -3.65146 0)
(230.455 -3.69946 0)
(231.716 -3.76532 0)
(232.995 -3.80837 0)
(234.288 -3.86634 0)
(235.598 -3.89561 0)
(236.919 -3.94046 0)
(238.257 -3.95469 0)
(239.604 -3.98736 0)
(240.966 -3.99092 0)
(242.337 -4.01633 0)
(243.722 -4.01598 0)
(245.115 -4.03952 0)
(246.524 -4.04086 0)
(247.941 -4.06461 0)
(249.374 -4.06967 0)
(250.817 -4.0921 0)
(252.277 -4.09971 0)
(253.747 -4.11618 0)
(255.234 -4.12271 0)
(256.73 -4.12873 0)
(258.243 -4.13058 0)
(259.765 -4.12263 0)
(261.302 -4.11737 0)
(262.847 -4.09498 0)
(264.404 -4.08214 0)
(265.97 -4.04838 0)
(267.544 -4.02957 0)
(269.128 -3.98993 0)
(270.718 -3.9669 0)
(272.318 -3.92781 0)
(273.921 -3.90253 0)
(275.535 -3.86993 0)
(277.151 -3.84259 0)
(278.779 -3.81967 0)
(280.409 -3.79069 0)
(282.049 -3.77571 0)
(283.694 -3.74586 0)
(285.346 -3.73494 0)
(287.007 -3.70564 0)
(288.67 -3.69162 0)
(290.346 -3.664 0)
(292.021 -3.64143 0)
(293.709 -3.61475 0)
(295.397 -3.57962 0)
(297.094 -3.55164 0)
(298.795 -3.50667 0)
(300.498 -3.47042 0)
(302.21 -3.42024 0)
(303.919 -3.37234 0)
(305.636 -3.32066 0)
(307.351 -3.26099 0)
(309.07 -3.20678 0)
(310.792 -3.14071 0)
(312.51 -3.08045 0)
(314.236 -3.01538 0)
(315.956 -2.94694 0)
(317.682 -2.88582 0)
(319.405 -2.81307 0)
(321.127 -2.75242 0)
(322.853 -2.68057 0)
(324.573 -2.61552 0)
(326.298 -2.5487 0)
(328.02 -2.48046 0)
(329.739 -2.41491 0)
(331.464 -2.34837 0)
(333.179 -2.2775 0)
(334.901 -2.21711 0)
(336.618 -2.13983 0)
(338.331 -2.07976 0)
(340.051 -2.00218 0)
(341.758 -1.93519 0)
(343.472 -1.86151 0)
(345.18 -1.78754 0)
(346.883 -1.71166 0)
(348.591 -1.63758 0)
(350.288 -1.552 0)
(351.985 -1.48009 0)
(353.681 -1.38972 0)
(355.363 -1.31145 0)
(357.055 -1.22442 0)
(358.728 -1.13543 0)
(360.4 -1.05161 0)
(362.078 -0.96083 0)
(363.727 -0.869579 0)
(365.391 -0.786049 0)
(367.044 -0.685919 0)
(368.67 -0.60079 0)
(370.313 -0.507509 0)
(371.93 -0.411179 0)
(373.524 -0.325524 0)
(375.145 -0.222863 0)
(376.589 -0.135975 0)
(378.107 -0.0789506 0)
(190.69 -0.359899 0)
(190.809 -0.381555 0)
(190.874 -0.450619 0)
(190.966 -0.537144 0)
(191.065 -0.653493 0)
(191.197 -0.781639 0)
(191.357 -0.909872 0)
(191.554 -1.00759 0)
(191.78 -1.06931 0)
(192.034 -1.09357 0)
(192.315 -1.08585 0)
(192.619 -1.05833 0)
(192.944 -1.03354 0)
(193.294 -1.01748 0)
(193.668 -1.02363 0)
(194.069 -1.05108 0)
(194.498 -1.10935 0)
(194.96 -1.18213 0)
(195.451 -1.26462 0)
(195.973 -1.34493 0)
(196.519 -1.42846 0)
(197.088 -1.50963 0)
(197.678 -1.5984 0)
(198.285 -1.69699 0)
(198.907 -1.82063 0)
(199.547 -1.96044 0)
(200.201 -2.12797 0)
(200.878 -2.30709 0)
(201.573 -2.49811 0)
(202.292 -2.68513 0)
(203.034 -2.86418 0)
(203.8 -3.01864 0)
(204.586 -3.15793 0)
(205.396 -3.26096 0)
(206.221 -3.35513 0)
(207.067 -3.4205 0)
(207.927 -3.48391 0)
(208.807 -3.5354 0)
(209.702 -3.58738 0)
(210.618 -3.63545 0)
(211.553 -3.68625 0)
(212.51 -3.72631 0)
(213.489 -3.77198 0)
(214.491 -3.79386 0)
(215.515 -3.82399 0)
(216.561 -3.82346 0)
(217.626 -3.83451 0)
(218.711 -3.81843 0)
(219.813 -3.8194 0)
(220.932 -3.80342 0)
(222.065 -3.81076 0)
(223.215 -3.81081 0)
(224.378 -3.83813 0)
(225.557 -3.86178 0)
(226.75 -3.91264 0)
(227.962 -3.95604 0)
(229.188 -4.02311 0)
(230.432 -4.07493 0)
(231.691 -4.1458 0)
(232.969 -4.19224 0)
(234.261 -4.25488 0)
(235.57 -4.28656 0)
(236.892 -4.33533 0)
(238.23 -4.35068 0)
(239.578 -4.38652 0)
(240.942 -4.39008 0)
(242.314 -4.41816 0)
(243.702 -4.41706 0)
(245.098 -4.44313 0)
(246.51 -4.44344 0)
(247.929 -4.4698 0)
(249.366 -4.47385 0)
(250.811 -4.49893 0)
(252.273 -4.50567 0)
(253.744 -4.52451 0)
(255.232 -4.53022 0)
(256.729 -4.53789 0)
(258.243 -4.53896 0)
(259.764 -4.53156 0)
(261.301 -4.52548 0)
(262.846 -4.50227 0)
(264.403 -4.48869 0)
(265.968 -4.4527 0)
(267.543 -4.43337 0)
(269.127 -4.39017 0)
(270.717 -4.36668 0)
(272.318 -4.32308 0)
(273.922 -4.29719 0)
(275.539 -4.25998 0)
(277.155 -4.23148 0)
(278.785 -4.20475 0)
(280.416 -4.17353 0)
(282.059 -4.15605 0)
(283.705 -4.12246 0)
(285.358 -4.11037 0)
(287.02 -4.07616 0)
(288.684 -4.06147 0)
(290.361 -4.02866 0)
(292.036 -4.00471 0)
(293.725 -3.97361 0)
(295.413 -3.93521 0)
(297.111 -3.90399 0)
(298.812 -3.85362 0)
(300.515 -3.81479 0)
(302.227 -3.75823 0)
(303.935 -3.707 0)
(305.654 -3.6495 0)
(307.369 -3.58454 0)
(309.09 -3.52573 0)
(310.812 -3.45238 0)
(312.531 -3.38794 0)
(314.259 -3.31539 0)
(315.979 -3.24156 0)
(317.708 -3.17429 0)
(319.433 -3.09415 0)
(321.157 -3.02839 0)
(322.885 -2.94848 0)
(324.605 -2.87778 0)
(326.333 -2.80426 0)
(328.056 -2.7285 0)
(329.778 -2.65731 0)
(331.504 -2.58257 0)
(333.219 -2.50562 0)
(334.944 -2.43849 0)
(336.66 -2.35304 0)
(338.375 -2.28763 0)
(340.095 -2.20096 0)
(341.802 -2.12782 0)
(343.518 -2.04649 0)
(345.226 -1.96419 0)
(346.928 -1.88167 0)
(348.638 -1.79903 0)
(350.332 -1.70539 0)
(352.031 -1.62671 0)
(353.727 -1.52647 0)
(355.407 -1.44169 0)
(357.102 -1.34526 0)
(358.773 -1.24765 0)
(360.446 -1.1566 0)
(362.125 -1.05571 0)
(363.77 -0.956188 0)
(365.439 -0.864256 0)
(367.091 -0.753798 0)
(368.715 -0.661383 0)
(370.364 -0.558703 0)
(371.977 -0.452288 0)
(373.57 -0.359185 0)
(375.2 -0.244482 0)
(376.625 -0.149005 0)
(378.143 -0.0883853 0)
(190.661 -0.380241 0)
(190.771 -0.40442 0)
(190.831 -0.477088 0)
(190.925 -0.56986 0)
(191.029 -0.693547 0)
(191.168 -0.829701 0)
(191.332 -0.966776 0)
(191.535 -1.07248 0)
(191.763 -1.14294 0)
(192.02 -1.1764 0)
(192.303 -1.17753 0)
(192.609 -1.15616 0)
(192.936 -1.13723 0)
(193.287 -1.1267 0)
(193.662 -1.13807 0)
(194.061 -1.17139 0)
(194.487 -1.23676 0)
(194.942 -1.31667 0)
(195.426 -1.40717 0)
(195.94 -1.49453 0)
(196.477 -1.58483 0)
(197.038 -1.6731 0)
(197.621 -1.76862 0)