/*--------------------------------*- C++ -*----------------------------------*\
| =========                 |                                                 |
| \\      /  F ield         | OpenFOAM: The Open Source CFD Toolbox           |
|  \\    /   O peration     | Version:  v2012                                 |
|   \\  /    A nd           | Website:  www.openfoam.com                      |
|    \\/     M anipulation  |                                                 |
\*---------------------------------------------------------------------------*/
FoamFile
{
    version     2.0;
    format      ascii;
    class       volScalarField;
    location    "0.08";
    object      ddt0(rhoY);
}
// * * * * * * * * * * * * * * * * * * * * * * * * * * * * * * * * * * * * * //

dimensions      [1 -3 -1 0 0 0 0];


internalField   nonuniform List<scalar> 
18000
(
-1.18387e-31
-1.28092e-31
-1.33696e-31
-1.36221e-31
-1.35982e-31
-1.35132e-31
-1.33963e-31
-1.32244e-31
-1.29712e-31
-1.26727e-31
-1.2262e-31
-1.173e-31
-1.10876e-31
-1.03502e-31
-9.54612e-32
-8.7304e-32
-7.97232e-32
-7.39156e-32
-7.17235e-32
-7.62532e-32
-9.17771e-32
-1.22923e-31
-1.69427e-31
-2.13704e-31
-1.97873e-31
1.70181e-32
7.15252e-31
2.41633e-30
5.97238e-30
1.26186e-29
2.38688e-29
4.10714e-29
6.43921e-29
9.08786e-29
1.11171e-28
1.04055e-28
2.76103e-29
-1.95752e-28
-7.04245e-28
-1.73703e-27
-3.69596e-27
-7.23073e-27
-1.33511e-26
-2.35527e-26
-3.99569e-26
-6.54293e-26
-1.0367e-25
-1.59201e-25
-2.37209e-25
-3.43083e-25
-4.81467e-25
-6.54488e-25
-8.58736e-25
-1.08047e-24
-1.28838e-24
-1.42275e-24
-1.37849e-24
-9.80675e-25
4.55485e-26
2.09808e-24
5.71199e-24
1.15923e-23
2.07548e-23
3.48007e-23
5.61563e-23
8.78023e-23
1.32209e-22
1.89934e-22
2.59416e-22
3.39305e-22
4.33079e-22
5.53483e-22
7.24346e-22
9.79919e-22
1.36523e-21
1.94007e-21
2.78361e-21
3.98934e-21
5.63873e-21
7.75217e-21
1.02315e-20
1.28255e-20
1.51466e-20
1.67521e-20
1.72685e-20
1.65176e-20
1.45881e-20
1.18251e-20
8.74058e-21
5.88161e-21
3.71346e-21
2.54319e-21
2.49073e-21
3.46603e-21
5.11871e-21
6.74615e-21
7.19907e-21
4.8634e-21
-2.19066e-21
-1.58388e-20
-3.73357e-20
-6.66692e-20
-1.02016e-19
-1.3953e-19
-1.73624e-19
-1.97824e-19
-2.06122e-19
-1.94534e-19
-1.62533e-19
-1.1385e-19
-5.63878e-20
-1.04589e-21
4.03547e-20
5.76501e-20
4.47996e-20
1.63161e-21
-6.56242e-20
-1.45203e-19
-2.21913e-19
-2.8005e-19
-3.06441e-19
-2.92974e-19
-2.38045e-19
-1.4673e-19
-2.96497e-20
9.90919e-20
2.24394e-19
3.32599e-19
4.13299e-19
4.60411e-19
4.72324e-19
4.5133e-19
4.02597e-19
3.32999e-19
2.50025e-19
1.6102e-19
7.27009e-20
-8.94335e-21
-7.89258e-20
-1.31645e-19
-1.69072e-19
-1.57445e-19
-2.50944e-19
3.21502e-19
-2.04788e-18
8.85767e-18
-3.71997e-17
1.48844e-16
-5.60115e-16
1.91425e-15
-1.07701e-31
-1.1736e-31
-1.22901e-31
-1.25195e-31
-1.24844e-31
-1.23663e-31
-1.22284e-31
-1.20203e-31
-1.17791e-31
-1.15015e-31
-1.11315e-31
-1.06505e-31
-1.00517e-31
-9.34563e-32
-8.56541e-32
-7.78533e-32
-7.12544e-32
-6.78779e-32
-7.00391e-32
-7.93679e-32
-9.35481e-32
-9.97081e-32
-6.35475e-32
8.49164e-32
4.68377e-31
1.27298e-30
2.73135e-30
5.02962e-30
8.03716e-30
1.06969e-29
9.84916e-30
-1.74836e-30
-3.8509e-29
-1.26398e-28
-3.08855e-28
-6.54649e-28
-1.26764e-27
-2.29951e-27
-3.96342e-27
-6.54485e-27
-1.04005e-26
-1.59249e-26
-2.34665e-26
-3.31503e-26
-4.45811e-26
-5.63609e-26
-6.53641e-26
-6.5667e-26
-4.70001e-26
7.43682e-27
1.23982e-25
3.42595e-25
7.22353e-25
1.34825e-24
2.33972e-24
3.85861e-24
6.11735e-24
9.38497e-24
1.40005e-23
2.03855e-23
2.90391e-23
4.0443e-23
5.48639e-23
7.21596e-23
9.19666e-23
1.14513e-22
1.41606e-22
1.75993e-22
2.16832e-22
2.50866e-22
2.43581e-22
1.39375e-22
-1.20175e-22
-5.59443e-22
-1.12767e-21
-1.68213e-21
-2.02007e-21
-1.96404e-21
-1.46165e-21
-6.40978e-22
2.398e-22
9.45828e-22
1.46269e-21
2.11474e-21
3.51151e-21
6.2963e-21
1.07863e-20
1.66668e-20
2.29039e-20
2.79553e-20
3.02484e-20
2.87449e-20
2.34098e-20
1.53575e-20
6.61578e-21
-4.75013e-22
-4.05788e-21
-3.51008e-21
9.68548e-23
4.02157e-21
4.40403e-21
-2.70647e-21
-2.01357e-20
-4.84524e-20
-8.52917e-20
-1.25415e-19
-1.61559e-19
-1.8599e-19
-1.9242e-19
-1.77736e-19
-1.4315e-19
-9.43064e-20
-4.0286e-20
8.27582e-21
4.15369e-20
5.26405e-20
3.91766e-20
3.57777e-21
-4.75935e-20
-1.05336e-19
-1.60276e-19
-2.04636e-19
-2.33625e-19
-2.46017e-19
-2.4372e-19
-2.30824e-19
-2.12185e-19
-1.92097e-19
-1.73566e-19
-1.57808e-19
-1.44488e-19
-1.32541e-19
-1.20665e-19
-1.08155e-19
-9.51229e-20
-8.24178e-20
-7.12796e-20
-6.26218e-20
-5.67164e-20
-5.1127e-20
-4.91496e-20
-1.50917e-20
-1.02323e-19
4.61676e-19
-1.88161e-18
8.69159e-18
-3.48382e-17
1.37956e-16
-5.2568e-16
1.92249e-15
-8.54037e-32
-9.46274e-32
-9.99386e-32
-1.02025e-31
-1.01533e-31
-1.00065e-31
-9.81997e-32
-9.58557e-32
-9.3586e-32
-9.1122e-32
-8.80134e-32
-8.39043e-32
-7.85952e-32
-7.21554e-32
-6.5082e-32
-5.85789e-32
-5.44981e-32
-5.48316e-32
-5.8978e-32
-5.95143e-32
-3.42272e-32
6.24216e-32
3.02435e-31
7.70916e-31
1.5128e-30
2.39347e-30
2.79621e-30
1.02514e-30
-6.74856e-30
-2.81577e-29
-7.704e-29
-1.76316e-28
-3.61101e-28
-6.80722e-28
-1.19818e-27
-1.98409e-27
-3.10021e-27
-4.56456e-27
-6.28121e-27
-7.91141e-27
-8.64824e-27
-6.86103e-27
4.50104e-28
1.83847e-26
5.51533e-26
1.23285e-25
2.41185e-25
4.34867e-25
7.40028e-25
1.20416e-24
1.88852e-24
2.86955e-24
4.23901e-24
6.10173e-24
8.57023e-24
1.17493e-23
1.57041e-23
2.04035e-23
2.56628e-23
3.11212e-23
3.62428e-23
4.01255e-23
4.07299e-23
3.35651e-23
1.10723e-23
-3.49174e-23
-1.07168e-22
-1.98155e-22
-2.96566e-22
-4.11706e-22
-6.08054e-22
-1.0236e-21
-1.84413e-21
-3.22982e-21
-5.23163e-21
-7.76173e-21
-1.06599e-20
-1.38371e-20
-1.73902e-20
-2.15756e-20
-2.65607e-20
-3.20537e-20
-3.69841e-20
-3.95191e-20
-3.75068e-20
-2.93029e-20
-1.46447e-20
4.80614e-21
2.55613e-20
4.31024e-20
5.3154e-20
5.30116e-20
4.25187e-20
2.43478e-20
3.54401e-21
-1.35877e-20
-2.09652e-20
-1.42583e-20
7.86908e-21
4.30998e-20
8.55321e-20
1.26639e-19
1.56812e-19
1.6743e-19
1.52859e-19
1.12001e-19
4.90818e-20
-2.67641e-20
-1.02866e-19
-1.65264e-19
-2.01411e-19
-2.02615e-19
-1.65928e-19
-9.49963e-20
3.16824e-22
1.05337e-19
2.0276e-19
2.75171e-19
3.07574e-19
2.89269e-19
2.15278e-19
8.69086e-20
-8.84647e-20
-2.98248e-19
-5.25915e-19
-7.52862e-19
-9.60139e-19
-1.1303e-18
-1.2494e-18
-1.30799e-18
-1.30205e-18
-1.23367e-18
-1.11019e-18
-9.4375e-19
-7.49558e-19
-5.44201e-19
-3.43828e-19
-1.62218e-19
-9.6737e-21
1.09649e-19
1.88698e-19
2.65574e-19
1.80467e-19
7.38175e-19
-1.62668e-18
8.31945e-18
-3.07904e-17
1.1837e-16
-4.40882e-16
1.5568e-15
-5.34007e-32
-6.18009e-32
-6.67157e-32
-6.88208e-32
-6.85038e-32
-6.69139e-32
-6.45603e-32
-6.17112e-32
-5.9095e-32
-5.65397e-32
-5.39717e-32
-5.10323e-32
-4.75232e-32
-4.34546e-32
-3.9374e-32
-3.63903e-32
-3.50945e-32
-3.2928e-32
-1.89105e-32
3.16118e-32
1.56705e-31
3.92348e-31
7.21215e-31
9.57725e-31
5.23709e-31
-1.953e-30
-9.27953e-30
-2.66332e-29
-6.26145e-29
-1.29925e-28
-2.44734e-28
-4.22834e-28
-6.70255e-28
-9.64079e-28
-1.21873e-27
-1.22871e-27
-5.79198e-28
1.49931e-27
6.35363e-27
1.62372e-26
3.47858e-26
6.75937e-26
1.22968e-25
2.1258e-25
3.52194e-25
5.6186e-25
8.65765e-25
1.29081e-24
1.86382e-24
2.60605e-24
3.52415e-24
4.59583e-24
5.74779e-24
6.82496e-24
7.54744e-24
7.45396e-24
5.813e-24
1.5001e-24
-7.16582e-24
-2.25036e-23
-4.74364e-23
-8.5399e-23
-1.40941e-22
-2.21405e-22
-3.39152e-22
-5.10779e-22
-7.50248e-22
-1.05625e-21
-1.4035e-21
-1.7498e-21
-2.06516e-21
-2.37207e-21
-2.78026e-21
-3.50616e-21
-4.88674e-21
-7.3939e-21
-1.16319e-20
-1.82599e-20
-2.77853e-20
-4.02428e-20
-5.48509e-20
-6.98572e-20
-8.26954e-20
-9.05554e-20
-9.11699e-20
-8.36154e-20
-6.87588e-20
-4.91988e-20
-2.86735e-20
-1.1115e-20
2.93677e-22
3.88356e-21
-1.64006e-22
-9.78768e-21
-2.12658e-20
-2.95899e-20
-2.89646e-20
-1.35568e-20
2.14583e-20
7.85873e-20
1.56664e-19
2.49944e-19
3.47842e-19
4.35945e-19
4.98062e-19
5.19307e-19
4.89738e-19
4.07376e-19
2.80494e-19
1.27573e-19
-2.4869e-20
-1.46605e-19
-2.09751e-19
-1.95062e-19
-9.70641e-20
7.31071e-20
2.88198e-19
5.08614e-19
6.89041e-19
7.86227e-19
7.67017e-19
6.14403e-19
3.3069e-19
-6.24871e-20
-5.27753e-19
-1.01794e-18
-1.48297e-18
-1.87701e-18
-2.1643e-18
-2.32248e-18
-2.34405e-18
-2.23576e-18
-2.0156e-18
-1.70996e-18
-1.34943e-18
-9.65599e-19
-5.88057e-19
-2.42109e-19
5.23988e-20
2.83726e-19
4.38719e-19
5.52563e-19
4.60834e-19
9.57076e-19
-1.35409e-18
7.43964e-18
-2.59316e-17
9.24987e-17
-2.96495e-16
6.58668e-16
-1.40655e-32
-2.1429e-32
-2.58656e-32
-2.82446e-32
-2.84776e-32
-2.70046e-32
-2.41565e-32
-2.02057e-32
-1.62516e-32
-1.27253e-32
-1.04136e-32
-9.34235e-33
-9.50614e-33
-1.06518e-32
-1.24297e-32
-1.34209e-32
-8.46296e-33
1.48423e-32
7.75566e-32
1.99369e-31
3.62582e-31
4.30076e-31
-1.463e-33
-1.82505e-30
-6.71832e-30
-1.74427e-29
-3.78998e-29
-7.2407e-29
-1.22952e-28
-1.82456e-28
-2.21158e-28
-1.62987e-28
1.5295e-28
1.02866e-27
2.98512e-27
6.86771e-27
1.39734e-26
2.62215e-26
4.63375e-26
7.80257e-26
1.26066e-25
1.96111e-25
2.94113e-25
4.2484e-25
5.8944e-25
7.81202e-25
9.79225e-25
1.13895e-24
1.17861e-24
9.60368e-25
2.65144e-25
-1.24075e-24
-4.04995e-24
-8.86619e-24
-1.66735e-23
-2.87938e-23
-4.69553e-23
-7.3332e-23
-1.10681e-22
-1.62482e-22
-2.33044e-22
-3.2677e-22
-4.46325e-22
-5.90338e-22
-7.55029e-22
-9.43613e-22
-1.1803e-21
-1.50919e-21
-1.95136e-21
-2.41383e-21
-2.59619e-21
-1.98888e-21
-5.22284e-23
3.42318e-21
7.91041e-21
1.19492e-20
1.33792e-20
1.00792e-20
9.30499e-22
-1.34383e-20
-3.06744e-20
-4.76065e-20
-6.17515e-20
-7.26215e-20
-8.20906e-20
-9.34689e-20
-1.09613e-19
-1.3099e-19
-1.54676e-19
-1.74854e-19
-1.84851e-19
-1.79654e-19
-1.5821e-19
-1.24072e-19
-8.43218e-20
-4.68359e-20
-1.68464e-20
5.91404e-21
2.83914e-20
6.29662e-20
1.23966e-19
2.2263e-19
3.62012e-19
5.33405e-19
7.1542e-19
8.76851e-19
9.82955e-19
1.00371e-18
9.23068e-19
7.45116e-19
4.96635e-19
2.23814e-19
-1.66811e-20
-1.70059e-19
-1.9663e-19
-8.24792e-20
1.55548e-19
4.71672e-19
7.99756e-19
1.06662e-18
1.20722e-18
1.17753e-18
9.6295e-19
5.80825e-19
7.54472e-20
-4.90863e-19
-1.04945e-18
-1.53752e-18
-1.9066e-18
-2.12807e-18
-2.19453e-18
-2.11604e-18
-1.916e-18
-1.6252e-18
-1.27649e-18
-9.01603e-19
-5.28652e-19
-1.81588e-19
1.19316e-19
3.58832e-19
5.17455e-19
6.16909e-19
5.01712e-19
8.43991e-19
-1.26541e-18
5.89049e-18
-2.13712e-17
6.76623e-17
-1.60144e-16
-1.92301e-16
2.97357e-32
2.38978e-32
1.98898e-32
1.68416e-32
1.54809e-32
1.64492e-32
2.00035e-32
2.59867e-32
3.2731e-32
3.84657e-32
4.09717e-32
3.93328e-32
3.33457e-32
2.43949e-32
1.60787e-32
1.60497e-32
3.74075e-32
9.43795e-32
1.83054e-31
2.33533e-31
2.41011e-32
-9.37974e-31
-3.53115e-30
-9.01432e-30
-1.86664e-29
-3.25845e-29
-4.67639e-29
-4.68816e-29
3.28232e-30
1.81185e-28
6.35418e-28
1.62451e-27
3.56626e-27
7.08356e-27
1.30348e-26
2.25021e-26
3.66918e-26
5.67015e-26
8.30132e-26
1.1457e-25
1.47149e-25
1.70799e-25
1.65834e-25
9.75122e-26
-9.16867e-26
-4.91156e-25
-1.2346e-24
-2.5137e-24
-4.59568e-24
-7.8414e-24
-1.27247e-23
-1.98493e-23
-2.99646e-23
-4.39685e-23
-6.29115e-23
-8.79374e-23
-1.20143e-22
-1.60259e-22
-2.08384e-22
-2.64116e-22
-3.27178e-22
-3.96646e-22
-4.65003e-22
-5.06577e-22
-4.71451e-22
-3.07858e-22
-2.04405e-23
2.76683e-22
4.0927e-22
3.63142e-22
6.12215e-22
2.30711e-21
7.04616e-21
1.61549e-20
2.97914e-20
4.64744e-20
6.35081e-20
7.83073e-20
8.98433e-20
9.92786e-20
1.08867e-19
1.19576e-19
1.28374e-19
1.27318e-19
1.05267e-19
5.24649e-20
-3.4061e-20
-1.46603e-19
-2.66644e-19
-3.69053e-19
-4.2953e-19
-4.32387e-19
-3.76357e-19
-2.75689e-19
-1.5672e-19
-5.03972e-20
1.68184e-20
3.12262e-20
-3.00979e-21
-6.36105e-20
-1.14847e-19
-1.16937e-19
-3.69963e-20
1.40153e-19
4.04912e-19
7.22019e-19
1.0361e-18
1.28351e-18
1.40788e-18
1.37447e-18
1.18119e-18
8.61322e-19
4.77535e-19
1.08657e-19
-1.68467e-19
-2.96654e-19
-2.51017e-19
-4.37157e-20
2.79982e-19
6.54012e-19
1.00727e-18
1.27908e-18
1.4311e-18
1.45313e-18
1.36018e-18
1.18604e-18
9.72464e-19
7.57658e-19
5.71082e-19
4.27309e-19
3.26551e-19
2.61954e-19
2.21275e-19
1.94431e-19
1.75847e-19
1.64318e-19
1.62418e-19
1.72309e-19
1.91841e-19
2.13436e-19
2.14859e-19
2.00325e-19
8.76877e-21
1.97456e-19
-1.67926e-18
3.67491e-18
-1.73654e-17
4.75306e-17
-9.53991e-17
-3.45802e-16
7.55577e-32
7.13047e-32
6.75834e-32
6.34653e-32
6.0345e-32
6.03637e-32
6.49888e-32
7.41437e-32
8.52665e-32
9.45551e-32
9.78653e-32
9.29822e-32
8.00215e-32
6.31566e-32
5.14467e-32
5.79652e-32
9.10335e-32
1.2807e-31
6.53654e-32
-3.48613e-31
-1.55152e-30
-4.07572e-30
-8.14498e-30
-1.2635e-29
-1.28489e-29
3.73269e-30
6.46339e-29
2.23913e-28
5.77423e-28
1.27907e-27
2.55276e-27
4.68334e-27
7.9696e-27
1.25953e-26
1.83781e-26
2.43106e-26
2.78397e-26
2.36871e-26
2.06781e-27
-5.38995e-26
-1.72003e-25
-3.95481e-25
-7.89501e-25
-1.44681e-24
-2.49551e-24
-4.10299e-24
-6.48012e-24
-9.87706e-24
-1.4574e-23
-2.08558e-23
-2.89699e-23
-3.90561e-23
-5.10405e-23
-6.4489e-23
-7.84116e-23
-9.09955e-23
-9.9137e-23
-9.77274e-23
-7.87091e-23
-3.09647e-23
5.88362e-23
2.05331e-22
4.29836e-22
7.74481e-22
1.31986e-21
2.17619e-21
3.42293e-21
5.0027e-21
6.66379e-21
8.07039e-21
9.13668e-21
1.04292e-20
1.33671e-20
2.00146e-20
3.26059e-20
5.31753e-20
8.35983e-20
1.2586e-19
1.81849e-19
2.52122e-19
3.33434e-19
4.1644e-19
4.84748e-19
5.17481e-19
4.94704e-19
4.05035e-19
2.51827e-19
5.56317e-20
-1.49041e-19
-3.2205e-19
-4.28465e-19
-4.48604e-19
-3.84061e-19
-2.57936e-19
-1.09727e-19
1.41176e-20
7.12067e-20
3.38586e-20
-1.02998e-19
-3.18489e-19
-5.67703e-19
-7.90423e-19
-9.23127e-19
-9.14478e-19
-7.38592e-19
-4.03424e-19
4.73236e-20
5.41943e-19
9.9382e-19
1.31913e-18
1.45497e-18
1.37204e-18
1.0815e-18
6.33272e-19
1.05922e-19
-4.07972e-19
-8.18105e-19
-1.0506e-18
-1.05839e-18
-8.23594e-19
-3.57037e-19
3.06804e-19
1.1171e-18
2.01344e-18
2.93061e-18
3.80451e-18
4.5743e-18
5.18431e-18
5.59206e-18
5.76647e-18
5.69186e-18
5.37629e-18
4.84498e-18
4.1442e-18
3.33438e-18
2.48254e-18
1.65589e-18
9.11116e-19
2.86532e-19
-2.01754e-19
-5.68446e-19
-8.26e-19
-1.12801e-18
-1.11454e-18
-2.50291e-18
8.23685e-19
-1.34519e-17
3.01209e-17
-6.43441e-17
-2.15398e-16
1.21072e-31
1.18213e-31
1.1445e-31
1.08759e-31
1.03344e-31
1.02147e-31
1.08257e-31
1.21733e-31
1.38612e-31
1.52693e-31
1.57792e-31
1.50359e-31
1.31659e-31
1.09161e-31
9.38963e-32
8.96139e-32
6.60516e-32
-8.44177e-32
-5.81012e-31
-1.70235e-30
-3.49782e-30
-5.04683e-30
-2.98995e-30
1.09181e-29
5.35086e-29
1.55021e-28
3.63432e-28
7.45105e-28
1.37212e-27
2.28092e-27
3.37915e-27
4.27222e-27
3.96095e-27
3.73215e-28
-1.03142e-26
-3.46462e-26
-8.30781e-26
-1.71679e-25
-3.24115e-25
-5.7391e-25
-9.66954e-25
-1.56243e-24
-2.43323e-24
-3.66035e-24
-5.32421e-24
-7.48374e-24
-1.01455e-23
-1.32125e-23
-1.64098e-23
-1.91791e-23
-2.05359e-23
-1.8882e-23
-1.17526e-23
4.46817e-24
3.49532e-23
8.67524e-23
1.69312e-22
2.94824e-22
4.7925e-22
7.43157e-22
1.11301e-21
1.61789e-21
2.28015e-21
3.10114e-21
4.07266e-21
5.24067e-21
6.80415e-21
9.11189e-21
1.23873e-20
1.61616e-20
1.87549e-20
1.73896e-20
9.40228e-21
-5.59614e-21
-2.34506e-20
-3.4407e-20
-2.43288e-20
2.13715e-20
1.12083e-19
2.46522e-19
4.10065e-19
5.76729e-19
7.15671e-19
8.00403e-19
8.16721e-19
7.66884e-19
6.679e-19
5.45656e-19
4.26895e-19
3.32141e-19
2.72138e-19
2.46765e-19
2.47491e-19
2.59498e-19
2.63852e-19
2.38714e-19
1.60305e-19
5.60669e-21
-2.4273e-19
-5.89358e-19
-1.01895e-18
-1.49289e-18
-1.94987e-18
-2.31492e-18
-2.5123e-18
-2.48206e-18
-2.19668e-18
-1.67051e-18
-9.66242e-19
-1.88023e-19
5.32863e-19
1.05928e-18
1.27627e-18
1.11679e-18
5.80719e-19
-2.57057e-19
-1.2534e-18
-2.21682e-18
-2.93921e-18
-3.2292e-18
-2.94736e-18
-2.03097e-18
-5.05628e-19
1.51588e-18
3.85064e-18
6.2737e-18
8.54812e-18
1.04565e-17
1.18319e-17
1.2568e-17
1.26276e-17
1.20454e-17
1.09083e-17
9.34693e-18
7.51438e-18
5.56846e-18
3.65836e-18
1.90923e-18
4.12531e-19
-7.78919e-19
-1.65756e-18
-2.23951e-18
-2.64796e-18
-2.72536e-18
-3.5009e-18
-1.53984e-18
-9.68191e-18
1.22256e-17
-4.23955e-18
-3.14053e-16
1.64233e-31
1.6235e-31
1.58002e-31
1.50258e-31
1.42175e-31
1.39564e-31
1.47638e-31
1.66401e-31
1.90193e-31
2.10422e-31
2.19158e-31
2.11584e-31
1.89377e-31
1.58303e-31
1.16784e-31
3.35522e-32
-1.79137e-31
-6.60741e-31
-1.47781e-30
-2.22578e-30
-1.18863e-30
6.01914e-30
2.8222e-29
8.0088e-29
1.81536e-28
3.51468e-28
5.88704e-28
8.27105e-28
8.4617e-28
1.13428e-28
-2.4751e-27
-8.95298e-27
-2.27945e-26
-4.94861e-26
-9.71155e-26
-1.7685e-25
-3.02963e-25
-4.92431e-25
-7.63138e-25
-1.13018e-24
-1.59889e-24
-2.15267e-24
-2.73358e-24
-3.21426e-24
-3.35582e-24
-2.75461e-24
-7.65267e-25
3.58904e-24
1.17418e-23
2.57197e-23
4.83082e-23
8.32173e-23
1.35289e-22
2.10637e-22
3.16937e-22
4.63344e-22
6.60216e-22
9.17648e-22
1.24484e-21
1.65215e-21
2.15771e-21
2.78506e-21
3.52748e-21
4.27237e-21
4.76407e-21
4.76028e-21
4.43999e-21
4.77288e-21
7.17782e-21
1.19847e-20
1.6152e-20
1.19938e-20
-1.10593e-20
-6.10537e-20
-1.36593e-19
-2.22616e-19
-2.92618e-19
-3.18123e-19
-2.81238e-19
-1.84184e-19
-4.89238e-20
9.33228e-20
2.19298e-19
3.27096e-19
4.3904e-19
5.89957e-19
8.06843e-19
1.0895e-18
1.40234e-18
1.68182e-18
1.85791e-18
1.87809e-18
1.72772e-18
1.43377e-18
1.05515e-18
6.60372e-19
3.02175e-19
-1.97985e-21
-2.76908e-19
-5.8073e-19
-9.83272e-19
-1.53745e-18
-2.25276e-18
-3.07959e-18
-3.90824e-18
-4.58753e-18
-4.95815e-18
-4.89187e-18
-4.33558e-18
-3.3354e-18
-2.0453e-18
-7.07568e-19
3.94769e-19
9.99884e-19
9.33107e-19
1.58921e-19
-1.19716e-18
-2.86126e-18
-4.45994e-18
-5.59142e-18
-5.90835e-18
-5.1871e-18
-3.37209e-18
-5.89572e-19
2.88003e-18
6.65334e-18
1.03095e-17
1.34601e-17
1.58038e-17
1.71564e-17
1.74629e-17
1.67845e-17
1.527e-17
1.31255e-17
1.05795e-17
7.85834e-18
5.16669e-18
2.67508e-18
5.13465e-19
-1.23117e-18
-2.51721e-18
-3.34018e-18
-3.75343e-18
-3.768e-18
-3.69541e-18
-2.71438e-18
-3.94822e-18
-6.82958e-18
9.46187e-17
-6.84141e-16
2.03384e-31
2.01703e-31
1.96201e-31
1.85963e-31
1.74885e-31
1.70723e-31
1.80935e-31
2.05709e-31
2.37713e-31
2.66067e-31
2.81203e-31
2.75683e-31
2.46286e-31
1.84876e-31
6.10832e-32
-1.87388e-31
-6.13716e-31
-1.08636e-30
-8.78665e-31
2.03465e-30
1.17695e-29
3.4719e-29
7.77831e-29
1.41873e-28
2.05831e-28
1.9296e-28
-8.94388e-29
-1.05606e-27
-3.50113e-27
-8.80555e-27
-1.91921e-26
-3.79184e-26
-6.93645e-26
-1.18675e-25
-1.90726e-25
-2.87856e-25
-4.05978e-25
-5.28127e-25
-6.14326e-25
-5.86898e-25
-3.08053e-25
4.47624e-25
2.03518e-24
4.97957e-24
1.00382e-23
1.82476e-23
3.09942e-23
5.00485e-23
7.7613e-23
1.16297e-22
1.69059e-22
2.39018e-22
3.29193e-22
4.42041e-22
5.78989e-22
7.39559e-22
9.19409e-22
1.10664e-21
1.27812e-21
1.40212e-21
1.44782e-21
1.38928e-21
1.16364e-21
5.6994e-22
-8.36282e-22
-3.63972e-21
-8.08359e-21
-1.33341e-20
-1.72944e-20
-1.79314e-20
-1.63807e-20
-2.01107e-20
-4.32706e-20
-1.02039e-19
-2.06506e-19
-3.54009e-19
-5.29316e-19
-7.12977e-19
-8.92221e-19
-1.06649e-18
-1.23963e-18
-1.40319e-18
-1.51748e-18
-1.50894e-18
-1.28664e-18
-7.80713e-19
1.77136e-20
1.03069e-18
2.09926e-18
3.02088e-18
3.60816e-18
3.74489e-18
3.42348e-18
2.74532e-18
1.89086e-18
1.06517e-18
4.38887e-19
9.95661e-20
2.68412e-20
9.82116e-20
1.21961e-19
-1.05192e-19
-7.37243e-19
-1.82347e-18
-3.27814e-18
-4.88698e-18
-6.34769e-18
-7.33968e-18
-7.61007e-18
-7.04305e-18
-5.70921e-18
-3.86523e-18
-1.90554e-18
-2.76523e-19
6.32413e-19
5.88842e-19
-4.18891e-19
-2.16821e-18
-4.24579e-18
-6.13911e-18
-7.35032e-18
-7.50227e-18
-6.41638e-18
-4.14719e-18
-9.55424e-19
2.74855e-18
6.49027e-18
9.82644e-18
1.24042e-17
1.40139e-17
1.45999e-17
1.42257e-17
1.30527e-17
1.12875e-17
9.14566e-18
6.83004e-18
4.51184e-18
2.33149e-18
4.02872e-19
-1.1829e-18
-2.35215e-18
-3.05451e-18
-3.22036e-18
-2.98095e-18
-1.76185e-18
-1.76852e-18
5.6404e-18
-2.5879e-17
2.08458e-16
-1.09178e-15
2.37196e-31
2.34794e-31
2.27656e-31
2.14526e-31
1.9999e-31
1.9391e-31
2.0617e-31
2.37613e-31
2.79381e-31
3.18146e-31
3.41402e-31
3.34392e-31
2.79717e-31
1.48113e-31
-9.93316e-32
-4.51606e-31
-6.60167e-31
1.29099e-31
3.81343e-30
1.33977e-29
3.15693e-29
5.58842e-29
6.782e-29
1.23768e-29
-2.36845e-28
-9.31415e-28
-2.51645e-27
-5.7107e-27
-1.15484e-26
-2.13011e-26
-3.61658e-26
-5.65037e-26
-8.03309e-26
-1.00649e-25
-1.01267e-25
-5.02711e-26
1.08361e-25
4.6739e-25
1.17232e-24
2.44124e-24
4.59171e-24
8.06288e-24
1.34491e-23
2.15035e-23
3.31513e-23
4.94381e-23
7.14641e-23
1.00207e-22
1.36281e-22
1.79513e-22
2.28386e-22
2.79245e-22
3.25242e-22
3.5513e-22
3.51678e-22
2.90228e-22
1.35636e-22
-1.6057e-22
-6.65319e-22
-1.46437e-21
-2.66507e-21
-4.38669e-21
-6.74332e-21
-9.81555e-21
-1.37384e-20
-1.89627e-20
-2.65557e-20
-3.78988e-20
-5.33423e-20
-7.02624e-20
-8.24771e-20
-8.28657e-20
-6.94334e-20
-5.19754e-20
-5.59031e-20
-1.20826e-19
-2.94253e-19
-6.21353e-19
-1.13082e-18
-1.81777e-18
-2.62573e-18
-3.43838e-18
-4.08664e-18
-4.38332e-18
-4.17227e-18
-3.38644e-18
-2.08408e-18
-4.54317e-19
1.22115e-18
2.63636e-18
3.54105e-18
3.80643e-18
3.45726e-18
2.66147e-18
1.68451e-18
8.19295e-19
3.13931e-19
3.09247e-19
8.01111e-19
1.63455e-18
2.53064e-18
3.15296e-18
3.18611e-18
2.42655e-18
8.47798e-19
-1.37518e-18
-3.88948e-18
-6.24159e-18
-7.97998e-18
-8.76139e-18
-8.44039e-18
-7.10483e-18
-5.06195e-18
-2.77094e-18
-7.34189e-19
6.17322e-19
1.01923e-18
4.26689e-19
-9.84972e-19
-2.88153e-18
-4.85475e-18
-6.51833e-18
-7.59209e-18
-7.95065e-18
-7.61899e-18
-6.75033e-18
-5.5675e-18
-4.29089e-18
-3.11758e-18
-2.1603e-18
-1.44235e-18
-9.52185e-19
-6.25914e-19
-4.06785e-19
-2.57286e-19
-1.57485e-19
-1.16897e-19
-1.47188e-19
-2.41992e-19
-3.65931e-19
-4.38082e-19
-3.50285e-19
1.30686e-19
8.33656e-19
3.29323e-18
2.28135e-18
1.89403e-17
-4.18906e-17
3.15272e-16
-1.40334e-15
2.6508e-31
2.60981e-31
2.51618e-31
2.35197e-31
2.16673e-31
2.08359e-31
2.22651e-31
2.61455e-31
3.14212e-31
3.64007e-31
3.91786e-31
3.69293e-31
2.63457e-31
5.1751e-32
-2.13032e-31
-2.40434e-31
7.57722e-31
4.23674e-30
1.17734e-29
2.25796e-29
2.7261e-29
-4.01479e-30
-1.4037e-28
-5.1352e-28
-1.33994e-27
-2.92491e-27
-5.60716e-27
-9.57511e-27
-1.44305e-26
-1.83303e-26
-1.64521e-26
1.29814e-27
5.39298e-26
1.74108e-25
4.14102e-25
8.52991e-25
1.60296e-24
2.81725e-24
4.69468e-24
7.47994e-24
1.1458e-23
1.69258e-23
2.41488e-23
3.32627e-23
4.41334e-23
5.61308e-23
6.78008e-23
7.64213e-23
7.73594e-23
6.33007e-23
2.32458e-23
-5.85617e-23
-2.04105e-22
-4.42714e-22
-8.1322e-22
-1.36462e-21
-2.15716e-21
-3.25811e-21
-4.7435e-21
-6.7086e-21
-9.30391e-21
-1.27323e-20
-1.71128e-20
-2.21516e-20
-2.70027e-20
-3.10324e-20
-3.57802e-20
-4.65369e-20
-7.03174e-20
-1.08145e-19
-1.44662e-19
-1.43817e-19
-6.00224e-20
1.33962e-19
4.13561e-19
6.8317e-19
7.87981e-19
5.60236e-19
-1.1452e-19
-1.23747e-18
-2.67074e-18
-4.16109e-18
-5.40854e-18
-6.15676e-18
-6.26838e-18
-5.7617e-18
-4.79313e-18
-3.60382e-18
-2.44601e-18
-1.52051e-18
-9.38437e-19
-7.08852e-19
-7.54413e-19
-9.34473e-19
-1.07483e-18
-9.97722e-19
-5.48411e-19
3.73374e-19
1.78281e-18
3.58293e-18
5.55309e-18
7.37349e-18
8.67243e-18
9.11377e-18
8.48006e-18
6.74058e-18
4.07976e-18
8.64291e-19
-2.41448e-18
-5.23891e-18
-7.16256e-18
-7.88445e-18
-7.30899e-18
-5.56384e-18
-2.9762e-18
-2.03413e-20
2.76039e-18
4.83833e-18
5.78639e-18
5.32301e-18
3.35475e-18
-2.35568e-20
-4.55557e-18
-9.85959e-18
-1.54733e-17
-2.09178e-17
-2.57376e-17
-2.95329e-17
-3.20381e-17
-3.30901e-17
-3.26336e-17
-3.07793e-17
-2.77122e-17
-2.37184e-17
-1.9142e-17
-1.43351e-17
-9.65251e-18
-5.39202e-18
-1.75711e-18
1.1571e-18
3.39262e-18
5.10046e-18
6.67303e-18
7.99906e-18
1.13958e-17
9.44553e-18
3.35617e-17
-5.19346e-17
3.97524e-16
-1.5895e-15
2.86449e-31
2.80213e-31
2.68049e-31
2.4772e-31
2.24471e-31
2.13916e-31
2.30767e-31
2.77383e-31
3.40884e-31
3.9795e-31
4.19231e-31
3.65539e-31
2.15824e-31
3.71477e-32
1.15474e-31
1.09701e-30
3.89275e-30
8.74112e-30
1.24026e-29
2.24201e-30
-5.30279e-29
-2.13506e-28
-5.72871e-28
-1.24068e-27
-2.27228e-27
-3.49457e-27
-4.15306e-27
-2.22961e-27
6.67808e-27
3.1028e-26
8.58099e-26
1.95299e-25
3.96577e-25
7.41946e-25
1.29952e-24
2.14967e-24
3.37435e-24
5.03823e-24
7.15396e-24
9.62956e-24
1.21849e-23
1.42372e-23
1.47213e-23
1.18843e-23
2.95541e-24
-1.61792e-23
-5.14982e-23
-1.11299e-22
-2.06937e-22
-3.53328e-22
-5.69649e-22
-8.79519e-22
-1.3115e-21
-1.89843e-21
-2.67864e-21
-3.69391e-21
-4.9848e-21
-6.57572e-21
-8.46952e-21
-1.06743e-20
-1.32707e-20
-1.64253e-20
-2.01764e-20
-2.38875e-20
-2.5743e-20
-2.34696e-20
-1.73255e-20
-1.411e-20
-2.6955e-20
-6.50151e-20
-1.13211e-19
-1.14912e-19
2.25359e-20
3.86648e-19
9.95474e-19
1.74637e-18
2.41899e-18
2.74756e-18
2.53458e-18
1.74839e-18
5.44738e-19
-8.02528e-19
-2.03573e-18
-3.03249e-18
-3.85668e-18
-4.70111e-18
-5.76426e-18
-7.11921e-18
-8.64605e-18
-1.00586e-17
-1.10105e-17
-1.12207e-17
-1.05774e-17
-9.15725e-18
-7.1795e-18
-4.91012e-18
-2.56044e-18
-2.24024e-19
2.12775e-18
4.59237e-18
7.24866e-18
1.00732e-17
1.28846e-17
1.53535e-17
1.70577e-17
1.75867e-17
1.66545e-17
1.41813e-17
1.0368e-17
5.68529e-18
8.3287e-19
-3.35544e-18
-6.06825e-18
-6.68591e-18
-4.94317e-18
-1.03926e-18
4.34218e-18
1.01111e-17
1.49568e-17
1.75699e-17
1.69102e-17
1.24038e-17
4.05851e-18
-7.51643e-18
-2.12165e-17
-3.56302e-17
-4.92505e-17
-6.06959e-17
-6.89371e-17
-7.33579e-17
-7.37717e-17
-7.04579e-17
-6.39771e-17
-5.51118e-17
-4.47443e-17
-3.37372e-17
-2.28991e-17
-1.28985e-17
-4.21488e-18
2.87014e-18
8.30893e-18
1.225e-17
1.51735e-17
1.70991e-17
2.06427e-17
1.7999e-17
4.38528e-17
-4.94664e-17
4.09863e-16
-1.5222e-15
2.99876e-31
2.91568e-31
2.7685e-31
2.52201e-31
2.23091e-31
2.10017e-31
2.29618e-31
2.84012e-31
3.55373e-31
4.11498e-31
4.16691e-31
3.46355e-31
2.53433e-31
3.76097e-31
1.19998e-30
3.20667e-30
5.7606e-30
4.42487e-30
-1.3491e-29
-7.3813e-29
-2.15234e-28
-4.7216e-28
-8.21525e-28
-1.06431e-27
-5.91617e-28
2.02642e-27
9.66177e-27
2.75948e-26
6.46973e-26
1.34579e-25
2.56566e-25
4.55141e-25
7.57182e-25
1.18365e-24
1.73399e-24
2.35785e-24
2.91477e-24
3.1121e-24
2.41854e-24
-4.55663e-26
-5.67137e-24
-1.65255e-23
-3.56195e-23
-6.7088e-23
-1.16532e-22
-1.9113e-22
-2.99926e-22
-4.53681e-22
-6.64872e-22
-9.46874e-22
-1.31308e-21
-1.77483e-21
-2.33914e-21
-3.00549e-21
-3.76358e-21
-4.58903e-21
-5.43225e-21
-6.19973e-21
-6.74281e-21
-6.89377e-21
-6.51122e-21
-5.4831e-21
-3.58724e-21
-2.52642e-22
5.96485e-21
1.78189e-20
3.86123e-20
6.84429e-20
9.94256e-20
1.16618e-19
1.13072e-19
1.15455e-19
2.02717e-19
4.91871e-19
1.08613e-18
2.01044e-18
3.18151e-18
4.44288e-18
5.64422e-18
6.70955e-18
7.62472e-18
8.3503e-18
8.69731e-18
8.28841e-18
6.63339e-18
3.34906e-18
-1.60933e-18
-7.78968e-18
-1.42787e-17
-1.99205e-17
-2.36529e-17
-2.48185e-17
-2.33538e-17
-1.97659e-17
-1.49502e-17
-9.89928e-18
-5.41714e-18
-1.91738e-18
6.40417e-19
2.67626e-18
4.81085e-18
7.62725e-18
1.14522e-17
1.62037e-17
2.13509e-17
2.60186e-17
2.91896e-17
2.99628e-17
2.78352e-17
2.28708e-17
1.57918e-17
7.90138e-18
8.42479e-19
-3.749e-18
-4.6534e-18
-1.41833e-18
5.44753e-18
1.4484e-17
2.35325e-17
3.01508e-17
3.21378e-17
2.79906e-17
1.72231e-17
4.85961e-19
-2.05803e-17
-4.36468e-17
-6.61078e-17
-8.55236e-17
-9.99951e-17
-1.08375e-16
-1.10305e-16
-1.06194e-16
-9.6982e-17
-8.3939e-17
-6.84764e-17
-5.19502e-17
-3.55844e-17
-2.03804e-17
-7.06702e-18
3.89516e-18
1.23423e-17
1.83553e-17
2.23635e-17
2.44992e-17
2.69815e-17
2.38321e-17
4.29218e-17
-3.20936e-17
3.07877e-16
-1.0387e-15
3.02121e-31
2.92559e-31
2.77192e-31
2.48515e-31
2.12812e-31
1.97137e-31
2.18259e-31
2.78407e-31
3.51821e-31
4.01227e-31
4.05234e-31
3.99386e-31
5.51508e-31
1.17781e-30
2.44413e-30
3.33537e-30
-5.0943e-31
-1.96953e-29
-7.17872e-29
-1.72654e-28
-3.05006e-28
-3.45347e-28
7.40607e-29
1.77927e-27
6.36536e-27
1.65872e-26
3.66821e-26
7.24907e-26
1.30812e-25
2.17152e-25
3.30823e-25
4.56142e-25
5.46471e-25
4.99341e-25
1.20711e-25
-9.27209e-25
-3.18444e-24
-7.47709e-24
-1.50129e-23
-2.7479e-23
-4.71824e-23
-7.71133e-23
-1.2108e-22
-1.83591e-22
-2.69785e-22
-3.849e-22
-5.3365e-22
-7.18874e-22
-9.39813e-22
-1.18937e-21
-1.45074e-21
-1.69303e-21
-1.86574e-21
-1.89463e-21
-1.67379e-21
-1.06293e-21
1.24977e-22
2.12722e-21
5.24782e-21
9.84947e-21
1.64178e-20
2.56303e-20
3.83021e-20
5.46572e-20
7.38496e-20
9.59266e-20
1.27426e-19
1.8432e-19
2.8304e-19
4.17468e-19
5.39225e-19
5.66157e-19
4.34039e-19
1.702e-19
-5.21903e-20
8.09516e-20
9.54365e-19
2.91646e-18
6.15787e-18
1.06067e-17
1.58319e-17
2.10197e-17
2.503e-17
2.66218e-17
2.47687e-17
1.90393e-17
9.83271e-18
-1.57943e-18
-1.3312e-17
-2.33193e-17
-2.99294e-17
-3.22687e-17
-3.04535e-17
-2.54853e-17
-1.8925e-17
-1.24353e-17
-7.35355e-18
-4.37535e-18
-3.42929e-18
-3.74359e-18
-4.07559e-18
-3.08491e-18
2.86222e-19
6.45405e-18
1.49957e-17
2.46808e-17
3.37277e-17
4.02363e-17
4.26987e-17
4.04032e-17
3.37044e-17
2.40131e-17
1.35257e-17
4.74826e-18
-1.123e-19
2.75778e-19
5.98452e-18
1.57109e-17
2.70015e-17
3.67735e-17
4.1989e-17
4.03293e-17
3.06942e-17
1.34424e-17
-9.73785e-18
-3.61591e-17
-6.26705e-17
-8.62495e-17
-1.04428e-16
-1.15676e-16
-1.1946e-16
-1.16155e-16
-1.06848e-16
-9.30186e-17
-7.63119e-17
-5.83058e-17
-4.03761e-17
-2.36333e-17
-8.88973e-18
3.32458e-18
1.27551e-17
1.93508e-17
2.33078e-17
2.47233e-17
2.47352e-17
2.07406e-17
2.55272e-17
-1.09992e-17
1.10046e-16
-2.63213e-16
2.93711e-31
2.82466e-31
2.67601e-31
2.35901e-31
1.94796e-31
1.78367e-31
1.98546e-31
2.5939e-31
3.29397e-31
3.8338e-31
4.45238e-31
6.29467e-31
1.11442e-30
1.84918e-30
1.69823e-30
-3.02928e-30
-1.98258e-29
-5.78769e-29
-1.15427e-28
-1.44291e-28
2.17642e-29
7.80507e-28
2.91136e-27
7.69815e-27
1.69203e-26
3.2503e-26
5.54218e-26
8.31617e-26
1.04917e-25
9.34384e-26
-8.59235e-27
-3.06364e-25
-9.80825e-25
-2.32131e-24
-4.76265e-24
-8.9251e-24
-1.56374e-23
-2.59598e-23
-4.11742e-23
-6.27265e-23
-9.21356e-23
-1.30751e-22
-1.79412e-22
-2.378e-22
-3.03524e-22
-3.70781e-22
-4.28379e-22
-4.57369e-22
-4.27328e-22
-2.92732e-22
1.23691e-23
5.78261e-22
1.52668e-21
3.01271e-21
5.23769e-21
8.44797e-21
1.29384e-20
1.90206e-20
2.70549e-20
3.75449e-20
5.13638e-20
6.98652e-20
9.46147e-20
1.25744e-19
1.59784e-19
1.91381e-19
2.24724e-19
2.88488e-19
4.3202e-19
6.79002e-19
9.49537e-19
1.00993e-18
5.30144e-19
-7.24524e-19
-2.63892e-18
-4.58075e-18
-5.46316e-18
-4.06232e-18
4.9613e-19
8.29395e-18
1.83911e-17
2.89568e-17
3.77043e-17
4.25359e-17
4.21271e-17
3.63221e-17
2.61484e-17
1.35533e-17
8.70295e-19
-9.72733e-18
-1.67268e-17
-1.95489e-17
-1.85939e-17
-1.50488e-17
-1.05496e-17
-6.75368e-18
-4.97034e-18
-5.85678e-18
-9.26552e-18
-1.42376e-17
-1.91708e-17