/*--------------------------------*- C++ -*----------------------------------*\
| =========                 |                                                 |
| \\      /  F ield         | OpenFOAM: The Open Source CFD Toolbox           |
|  \\    /   O peration     | Version:  v2012                                 |
|   \\  /    A nd           | Website:  www.openfoam.com                      |
|    \\/     M anipulation  |                                                 |
\*---------------------------------------------------------------------------*/
FoamFile
{
    version     2.0;
    format      ascii;
    class       volVectorField;
    location    "0.08";
    object      ddt0(rho,U);
}
// * * * * * * * * * * * * * * * * * * * * * * * * * * * * * * * * * * * * * //

dimensions      [1 -2 -2 0 0 0 0];


internalField   nonuniform List<vector> 
18000
(
(1.31081 -0.858142 0)
(1.72684 -0.727129 0)
(1.55407 -0.212769 0)
(0.0583071 0.174717 0)
(-1.65019 0.646988 0)
(-4.01576 1.17479 0)
(-6.2083 1.53958 0)
(-7.8811 1.77569 0)
(-8.04791 2.12086 0)
(-6.86561 2.46056 0)
(-4.96674 2.87101 0)
(-2.86014 3.25616 0)
(-1.00308 3.51653 0)
(0.262645 3.62857 0)
(0.813498 3.59317 0)
(0.675961 3.38305 0)
(0.0335308 3.00823 0)
(-0.807821 2.45136 0)
(-1.52265 1.85228 0)
(-1.97635 0.801659 0)
(-1.95127 0.28711 0)
(-1.54457 -0.485231 0)
(-0.979875 -1.20446 0)
(-0.575935 -1.80867 0)
(-0.507601 -2.30676 0)
(-0.866499 -2.69585 0)
(-1.65152 -2.98732 0)
(-2.74087 -3.21502 0)
(-3.91433 -3.399 0)
(-4.93595 -3.54926 0)
(-5.56602 -3.67036 0)
(-5.65256 -3.70883 0)
(-5.15607 -3.62736 0)
(-4.16512 -3.36018 0)
(-2.86274 -2.92337 0)
(-1.43988 -2.3281 0)
(-0.0987658 -1.6451 0)
(1.03313 -0.931481 0)
(1.83624 -0.31539 0)
(2.28782 0.258252 0)
(2.35786 0.709284 0)
(2.13813 1.08034 0)
(1.73348 1.32822 0)
(1.31199 1.46688 0)
(1.02282 1.50686 0)
(0.99379 1.4754 0)
(1.26498 1.41101 0)
(1.78946 1.33492 0)
(2.45304 1.26653 0)
(3.09101 1.20723 0)
(3.55154 1.15634 0)
(3.70687 1.10819 0)
(3.49988 1.05464 0)
(2.92721 0.986789 0)
(2.0345 0.908048 0)
(0.884099 0.724202 0)
(-0.262995 0.605552 0)
(-1.36805 0.363315 0)
(-2.25355 0.103377 0)
(-2.81246 -0.136059 0)
(-2.9925 -0.356114 0)
(-2.79892 -0.544813 0)
(-2.27585 -0.704142 0)
(-1.51474 -0.803302 0)
(-0.639465 -0.845715 0)
(0.227966 -0.82176 0)
(0.972202 -0.75107 0)
(1.5079 -0.632328 0)
(1.787 -0.491792 0)
(1.80495 -0.330676 0)
(1.58086 -0.173752 0)
(1.1678 -0.0386217 0)
(0.617253 0.0841351 0)
(0.0146868 0.176008 0)
(-0.599761 0.297435 0)
(-1.12545 0.300751 0)
(-1.55958 0.285043 0)
(-1.85564 0.250114 0)
(-1.99122 0.201015 0)
(-1.96151 0.14143 0)
(-1.77213 0.0751138 0)
(-1.45381 0.0176156 0)
(-1.03716 -0.0349014 0)
(-0.554157 -0.0673409 0)
(-0.0375353 -0.0799361 0)
(0.478367 -0.0655352 0)
(0.95608 -0.0349877 0)
(1.3726 0.00269443 0)
(1.70065 0.0454049 0)
(1.90038 0.100175 0)
(1.95323 0.153165 0)
(1.87708 0.194873 0)
(1.66538 0.240495 0)
(1.34085 0.25646 0)
(0.918237 0.260307 0)
(0.424121 0.235098 0)
(-0.108049 0.204177 0)
(-0.659367 0.172362 0)
(-1.18195 0.129977 0)
(-1.59033 0.0591331 0)
(-1.85902 -0.000778175 0)
(-1.99527 -0.055626 0)
(-1.99817 -0.106997 0)
(-1.87207 -0.145996 0)
(-1.59863 -0.18111 0)
(-1.18572 -0.205764 0)
(-0.658941 -0.241444 0)
(-0.0643497 -0.281796 0)
(0.519934 -0.307148 0)
(1.04408 -0.313083 0)
(1.49648 -0.292088 0)
(1.88204 -0.243974 0)
(2.21636 -0.181358 0)
(2.49343 -0.107447 0)
(2.70173 -0.0407675 0)
(2.83398 0.0095864 0)
(2.85948 0.052824 0)
(2.75577 0.0950842 0)
(2.52522 0.136942 0)
(2.18404 0.190324 0)
(1.78841 0.22579 0)
(1.39897 0.250794 0)
(0.999207 0.291837 0)
(0.586612 0.316037 0)
(0.151452 0.331681 0)
(-0.303016 0.329078 0)
(-0.771546 0.326222 0)
(-1.246 0.320277 0)
(-1.68392 0.290462 0)
(-2.04853 0.241457 0)
(-2.34118 0.198751 0)
(-2.5426 0.143976 0)
(-2.65531 0.0766638 0)
(-2.72561 0.0328013 0)
(-2.72022 -0.000908234 0)
(-2.67332 -0.00101626 0)
(-2.57733 -0.0147414 0)
(-2.42123 -0.061855 0)
(-2.23186 -0.0737115 0)
(-2.00798 -0.125634 0)
(-1.76436 -0.123785 0)
(-1.46809 -0.197098 0)
(-1.12681 -0.241704 0)
(-0.558283 -0.145134 0)
(-0.110166 -0.0634124 0)
(0.119724 -0.283964 0)
(0.295606 -0.217577 0)
(0.604712 -0.369943 0)
(1.08957 -0.363133 0)
(1.66361 -0.346994 0)
(1.14454 -1.9575 0)
(1.21527 -1.79762 0)
(1.36582 -0.505137 0)
(0.0428918 0.987904 0)
(-1.85433 2.53242 0)
(-4.18697 4.01532 0)
(-6.56451 5.41138 0)
(-8.25531 6.68601 0)
(-8.75516 7.83205 0)
(-8.08248 8.70419 0)
(-6.56475 9.51256 0)
(-4.7824 10.0846 0)
(-3.16278 10.2201 0)
(-1.9785 9.89728 0)
(-1.33968 9.16091 0)
(-1.22979 8.04141 0)
(-1.52166 6.64905 0)
(-1.98031 4.83244 0)
(-2.27702 2.54575 0)
(-2.27575 1.22359 0)
(-1.93011 -1.12727 0)
(-1.09801 -3.44291 0)
(-0.059496 -5.45802 0)
(0.811283 -7.01141 0)
(1.28642 -8.19068 0)
(1.24834 -9.02165 0)
(0.693669 -9.56505 0)
(-0.254457 -9.92964 0)
(-1.37384 -10.1901 0)
(-2.42063 -10.3591 0)
(-3.15774 -10.4329 0)
(-3.42926 -10.2548 0)
(-3.18696 -9.74379 0)
(-2.50668 -8.7326 0)
(-1.5468 -7.29982 0)
(-0.481248 -5.4764 0)
(0.509342 -3.46593 0)
(1.29755 -1.43079 0)
(1.81803 0.489125 0)
(1.99112 2.0928 0)
(1.84657 3.39498 0)
(1.43709 4.34311 0)
(0.879948 4.88331 0)
(0.344782 5.07102 0)
(-0.0296223 4.96135 0)
(-0.121428 4.64692 0)
(0.104684 4.24982 0)
(0.609204 3.83529 0)
(1.28242 3.46851 0)
(1.96886 3.16201 0)
(2.51637 2.92077 0)
(2.79527 2.71895 0)
(2.73819 2.51749 0)
(2.33359 2.26603 0)
(1.6258 1.88783 0)
(0.708991 1.75112 0)
(-0.282997 1.17557 0)
(-1.20362 0.543681 0)
(-1.94651 -0.0904382 0)
(-2.42224 -0.680511 0)
(-2.56726 -1.25572 0)
(-2.36752 -1.75507 0)
(-1.86656 -2.15967 0)
(-1.14809 -2.37848 0)
(-0.328903 -2.43633 0)
(0.477148 -2.31327 0)
(1.16674 -2.06651 0)
(1.65657 -1.68606 0)
(1.9031 -1.24875 0)
(1.89559 -0.759247 0)
(1.65799 -0.282579 0)
(1.22609 0.164281 0)
(0.660942 0.538784 0)
(0.0269694 0.820014 0)
(-0.554602 1.0151 0)
(-1.13507 1.08708 0)
(-1.58418 1.04362 0)
(-1.88076 0.91569 0)
(-2.02535 0.724433 0)
(-2.01316 0.496745 0)
(-1.84105 0.249806 0)
(-1.53127 0.0175452 0)
(-1.11614 -0.196368 0)
(-0.634944 -0.344275 0)
(-0.127064 -0.416559 0)
(0.37406 -0.396366 0)
(0.83657 -0.310012 0)
(1.24864 -0.199165 0)
(1.59573 -0.0786316 0)
(1.83296 0.0779074 0)
(1.93053 0.227622 0)
(1.88186 0.364716 0)
(1.68038 0.524726 0)
(1.34166 0.638511 0)
(0.909971 0.717264 0)
(0.413834 0.73512 0)
(-0.0969025 0.695804 0)
(-0.620901 0.644017 0)
(-1.10869 0.5227 0)
(-1.49792 0.332911 0)
(-1.76489 0.181228 0)
(-1.9047 0.0352297 0)
(-1.90791 -0.11447 0)
(-1.80228 -0.214152 0)
(-1.59906 -0.284304 0)
(-1.30838 -0.298691 0)
(-0.920021 -0.333765 0)
(-0.422857 -0.408756 0)
(0.145719 -0.496622 0)
(0.727955 -0.576885 0)
(1.26663 -0.60684 0)
(1.7246 -0.559667 0)
(2.08469 -0.439924 0)
(2.34049 -0.255696 0)
(2.49493 -0.0538632 0)
(2.57313 0.108446 0)
(2.57154 0.251226 0)
(2.48299 0.374821 0)
(2.30332 0.488917 0)
(2.03865 0.603601 0)
(1.72145 0.6612 0)
(1.38349 0.69985 0)
(0.998023 0.798884 0)
(0.575114 0.876326 0)
(0.131038 0.925247 0)
(-0.306251 0.90077 0)
(-0.73251 0.853649 0)
(-1.15211 0.786241 0)
(-1.54831 0.693328 0)
(-1.90445 0.587924 0)
(-2.19983 0.486111 0)
(-2.40451 0.327975 0)
(-2.55866 0.199796 0)
(-2.67252 0.0937042 0)
(-2.69093 -0.0575487 0)
(-2.64811 -0.116118 0)
(-2.56251 -0.180284 0)
(-2.45294 -0.249294 0)
(-2.30029 -0.301749 0)
(-2.14007 -0.350679 0)
(-1.9485 -0.412777 0)
(-1.71371 -0.507497 0)
(-1.66938 -0.767305 0)
(-1.48311 -1.15499 0)
(-1.08833 -1.06725 0)
(-0.523071 -0.644519 0)
(0.00346858 -0.618926 0)
(0.408734 -0.68762 0)
(0.880242 -0.533151 0)
(1.37307 -0.439892 0)
(1.27551 -2.77238 0)
(1.14691 -2.87137 0)
(1.2945 -0.904986 0)
(0.137853 1.37441 0)
(-1.36808 4.03395 0)
(-3.43401 6.54769 0)
(-5.58716 8.888 0)
(-7.00545 10.9829 0)
(-7.38063 12.4133 0)
(-6.68097 13.4504 0)
(-5.1888 14.4295 0)
(-3.45407 15.2198 0)
(-1.89388 15.4998 0)
(-0.783641 15.2076 0)
(-0.244435 14.345 0)
(-0.246434 12.8633 0)
(-0.669772 10.8478 0)
(-1.29373 8.06315 0)
(-1.78811 4.79898 0)
(-1.93269 0.984119 0)
(-1.78013 -2.39098 0)
(-1.28806 -5.80404 0)
(-0.633206 -8.72541 0)
(-0.0691405 -11.0261 0)
(0.179198 -12.8071 0)
(0.00983031 -14.0725 0)
(-0.587411 -14.9107 0)
(-1.50722 -15.4888 0)
(-2.55815 -15.9085 0)
(-3.50913 -16.1586 0)
(-4.14804 -16.2301 0)
(-4.32022 -15.9185 0)
(-3.97384 -15.1339 0)
(-3.17887 -13.6201 0)
(-2.08387 -11.4844 0)
(-0.870587 -8.73752 0)
(0.279828 -5.6682 0)
(1.22281 -2.51729 0)
(1.87504 0.469749 0)
(2.16257 3.12317 0)
(2.13732 5.17482 0)
(1.82674 6.69952 0)
(1.35842 7.57276 0)
(0.886347 7.89547 0)
(0.543752 7.75073 0)
(0.450304 7.27535 0)
(0.637626 6.65297 0)
(1.0771 5.98935 0)
(1.66415 5.40013 0)
(2.25807 4.91492 0)
(2.71555 4.54111 0)
(2.91857 4.23336 0)
(2.80268 3.93134 0)
(2.35749 3.57533 0)
(1.61783 3.10635 0)
(0.782957 2.49099 0)
(-0.21964 1.7466 0)
(-1.1369 0.872859 0)
(-1.88969 -0.0797639 0)
(-2.38044 -1.05709 0)
(-2.55908 -2.02019 0)
(-2.40095 -2.8289 0)
(-1.96062 -3.46351 0)
(-1.31004 -3.81015 0)
(-0.555562 -3.91753 0)
(0.197243 -3.74272 0)
(0.855663 -3.36442 0)
(1.33449 -2.7646 0)
(1.59786 -2.0695 0)
(1.62669 -1.28835 0)
(1.44126 -0.526263 0)
(1.07437 0.203556 0)
(0.580238 0.812928 0)
(0.0303338 1.29371 0)
(-0.52885 1.54424 0)
(-1.04142 1.72319 0)
(-1.45168 1.68152 0)
(-1.73573 1.49899 0)
(-1.8737 1.21586 0)
(-1.85647 0.865208 0)
(-1.68776 0.476897 0)
(-1.39411 0.109838 0)
(-1.00085 -0.21391 0)
(-0.538592 -0.448856 0)
(-0.0387873 -0.590167 0)
(0.456996 -0.600135 0)
(0.904881 -0.496405 0)
(1.28373 -0.323826 0)
(1.59483 -0.121457 0)
(1.81337 0.135786 0)
(1.92444 0.345662 0)
(1.90718 0.515898 0)
(1.73747 0.698811 0)
(1.40077 0.847457 0)
(0.943231 0.951052 0)
(0.407845 1.00436 0)
(-0.133033 0.956837 0)
(-0.66867 0.911153 0)
(-1.14886 0.7273 0)
(-1.54232 0.494129 0)
(-1.83573 0.320003 0)
(-2.00483 0.139329 0)
(-2.00589 -0.0928767 0)
(-1.85805 -0.302168 0)
(-1.60999 -0.499058 0)
(-1.3248 -0.599792 0)
(-1.02939 -0.661041 0)
(-0.689598 -0.703637 0)
(-0.270398 -0.720186 0)
(0.246362 -0.744147 0)
(0.818751 -0.744611 0)
(1.37783 -0.68932 0)
(1.85345 -0.56467 0)
(2.19123 -0.358489 0)
(2.38665 -0.137546 0)
(2.46587 0.0457198 0)
(2.44815 0.235635 0)
(2.34464 0.44924 0)
(2.17004 0.678013 0)
(1.9376 0.912471 0)
(1.67864 1.05126 0)
(1.4151 1.12317 0)
(1.1006 1.25177 0)
(0.732724 1.33183 0)
(0.311366 1.38287 0)
(-0.129327 1.35552 0)
(-0.568048 1.31695 0)
(-0.997985 1.2493 0)
(-1.38831 1.12188 0)
(-1.73838 0.974814 0)
(-2.04182 0.832558 0)
(-2.27322 0.593218 0)
(-2.44747 0.406478 0)
(-2.57351 0.222561 0)
(-2.61147 -0.0461125 0)
(-2.60333 -0.190167 0)
(-2.49932 -0.337575 0)
(-2.3263 -0.434154 0)
(-2.07229 -0.519118 0)
(-1.79777 -0.518048 0)
(-1.49503 -0.553771 0)
(-1.14771 -0.609976 0)
(-0.720581 -0.48697 0)
(-0.29809 -0.925974 0)
(-0.223094 -1.07458 0)
(0.0143078 -0.937664 0)
(0.336626 -0.961142 0)
(0.670595 -1.00507 0)
(0.944021 -0.82622 0)
(1.36311 -0.731377 0)
(1.35832 -3.70499 0)
(0.537445 -3.62311 0)
(0.835627 -1.28703 0)
(0.121936 1.72604 0)
(-1.07419 5.39531 0)
(-2.89606 9.15287 0)
(-4.88346 12.2131 0)
(-6.1743 14.7527 0)
(-6.64104 16.2959 0)
(-6.13601 17.3837 0)
(-4.89563 18.3823 0)
(-3.37695 19.3377 0)
(-1.95219 19.7634 0)
(-0.87925 19.561 0)
(-0.302623 18.6945 0)
(-0.211847 17.0154 0)
(-0.531107 14.5344 0)
(-1.04789 10.8708 0)
(-1.43217 6.36956 0)
(-1.57101 1.32144 0)
(-1.44615 -3.59451 0)
(-1.08064 -8.10989 0)
(-0.509162 -11.8291 0)
(0.0350387 -14.7271 0)
(0.3264 -16.9614 0)
(0.254829 -18.5377 0)
(-0.221213 -19.5919 0)
(-1.01846 -20.3116 0)
(-1.97449 -20.8053 0)
(-2.86414 -21.0434 0)
(-3.49854 -21.0355 0)
(-3.72159 -20.5647 0)
(-3.4697 -19.5404 0)
(-2.79671 -17.6273 0)
(-1.82055 -14.951 0)
(-0.716585 -11.4817 0)
(0.349489 -7.55747 0)
(1.2231 -3.48647 0)
(1.82812 0.409355 0)
(2.09578 3.92051 0)
(2.0366 6.66844 0)
(1.71195 8.70322 0)
(1.23602 9.87174 0)
(0.750297 10.3197 0)
(0.383191 10.1459 0)
(0.252026 9.523 0)
(0.382201 8.6886 0)
(0.759114 7.79235 0)
(1.2828 6.99914 0)
(1.83169 6.35182 0)
(2.27113 5.85516 0)
(2.49357 5.44652 0)
(2.43317 5.0489 0)
(2.07761 4.58705 0)
(1.48531 4.00654 0)
(0.693808 3.12795 0)
(-0.190009 2.21798 0)
(-0.999285 1.14251 0)
(-1.67888 -0.0980277 0)
(-2.11377 -1.42363 0)
(-2.27944 -2.71681 0)
(-2.14306 -3.77839 0)
(-1.76265 -4.60687 0)
(-1.18876 -5.07575 0)
(-0.516175 -5.24041 0)
(0.158824 -5.02851 0)
(0.758944 -4.5388 0)
(1.1976 -3.74844 0)
(1.45024 -2.82791 0)
(1.48601 -1.78936 0)
(1.33025 -0.771159 0)
(1.00286 0.208991 0)
(0.554969 1.03671 0)
(0.0536254 1.66393 0)
(-0.4919 2.06872 0)
(-0.958075 2.29356 0)
(-1.34742 2.26854 0)
(-1.6248 2.04602 0)
(-1.76271 1.69324 0)
(-1.74956 1.23323 0)
(-1.58738 0.715036 0)
(-1.31661 0.241577 0)
(-0.95955 -0.158979 0)
(-0.539687 -0.459866 0)
(-0.0654271 -0.671886 0)
(0.42949 -0.745808 0)
(0.888487 -0.678037 0)
(1.26333 -0.489812 0)
(1.54408 -0.230824 0)
(1.72422 0.117329 0)
(1.80893 0.401355 0)
(1.79496 0.619268 0)
(1.65193 0.840509 0)
(1.35339 1.02985 0)
(0.928685 1.15356 0)
(0.430268 1.21645 0)
(-0.0831401 1.14801 0)
(-0.583479 1.08679 0)
(-1.03984 0.864796 0)
(-1.42805 0.628722 0)
(-1.74382 0.442508 0)
(-1.94708 0.217601 0)
(-1.97223 -0.115182 0)
(-1.83207 -0.434918 0)
(-1.57282 -0.756009 0)
(-1.25918 -0.978433 0)
(-0.94822 -1.12705 0)
(-0.647402 -1.18842 0)
(-0.330797 -1.13246 0)
(0.0624542 -1.05419 0)
(0.541696 -0.963143 0)
(1.05743 -0.852881 0)
(1.52348 -0.691226 0)
(1.85685 -0.4347 0)
(2.05936 -0.190979 0)
(2.16449 0.015838 0)
(2.19694 0.241586 0)
(2.16632 0.515753 0)
(2.07396 0.801932 0)
(1.90614 1.10561 0)
(1.67234 1.32342 0)
(1.39629 1.47677 0)
(1.0784 1.67187 0)
(0.760531 1.73774 0)
(0.419801 1.74499 0)
(0.0527837 1.67678 0)
(-0.341437 1.63311 0)
(-0.745372 1.57012 0)
(-1.11374 1.40664 0)
(-1.45602 1.20599 0)
(-1.76249 0.981958 0)
(-2.0135 0.671624 0)
(-2.22025 0.441315 0)
(-2.38799 0.214288 0)
(-2.49509 -0.0825299 0)
(-2.58721 -0.249811 0)
(-2.54558 -0.487472 0)
(-2.3647 -0.67554 0)
(-2.03919 -0.851194 0)
(-1.60299 -0.953105 0)
(-1.10187 -1.03593 0)
(-0.574268 -1.19044 0)
(0.41683 -1.50446 0)
(1.26461 -1.62499 0)
(1.16106 -1.10381 0)
(0.837229 -1.0321 0)
(0.686148 -1.13846 0)
(0.77788 -1.2479 0)
(0.888867 -1.0189 0)
(1.141 -0.957722 0)
(1.14337 -5.06278 0)
(0.126159 -4.3268 0)
(0.426882 -1.70219 0)
(0.0426319 2.13316 0)
(-0.824716 6.71825 0)
(-2.29729 11.4098 0)
(-3.97442 15.1965 0)
(-5.07697 17.9553 0)
(-5.55782 19.4906 0)
(-5.21392 20.5414 0)
(-4.20979 21.4411 0)
(-2.88892 22.5024 0)
(-1.59217 23.0781 0)
(-0.561853 23.0254 0)
(0.0172049 22.2517 0)
(0.103438 20.5039 0)
(-0.269688 17.7103 0)
(-0.87348 13.3372 0)
(-1.3591 7.80015 0)
(-1.52843 1.78423 0)
(-1.49297 -4.43716 0)
(-1.18191 -10.1053 0)
(-0.702513 -14.5513 0)
(-0.22155 -17.8718 0)
(0.0662008 -20.3723 0)
(0.0618568 -22.1406 0)
(-0.296428 -23.3512 0)
(-0.947221 -24.1555 0)
(-1.77068 -24.6765 0)
(-2.55469 -24.8868 0)
(-3.14149 -24.8135 0)
(-3.38026 -24.2318 0)
(-3.19663 -23.0427 0)
(-2.62711 -20.8477 0)
(-1.74863 -17.7913 0)
(-0.724558 -13.7951 0)
(0.30094 -9.21676 0)
(1.15869 -4.42101 0)
(1.7769 0.220884 0)
(2.0429 4.3448 0)
(2.06362 7.78312 0)
(1.75888 10.2817 0)
(1.31795 11.7211 0)
(0.850792 12.2909 0)
(0.472897 12.0985 0)
(0.301723 11.3522 0)
(0.358368 10.3374 0)
(0.646574 9.24269 0)
(1.07449 8.27155 0)
(1.54472 7.47755 0)
(1.93293 6.8677 0)
(2.14271 6.37169 0)
(2.10554 5.8993 0)
(1.81104 5.36261 0)
(1.2761 4.67124 0)
(0.591933 3.70472 0)
(-0.168755 2.62425 0)
(-0.884379 1.36945 0)
(-1.49323 -0.115326 0)
(-1.8713 -1.69581 0)
(-2.02594 -3.23605 0)
(-1.91318 -4.51699 0)
(-1.59699 -5.53558 0)
(-1.10441 -6.13664 0)
(-0.518718 -6.36992 0)
(0.0743348 -6.14203 0)
(0.614025 -5.57211 0)
(1.01188 -4.6316 0)
(1.25723 -3.52494 0)
(1.30477 -2.26743 0)
(1.18828 -1.02516 0)
(0.910671 0.17329 0)
(0.523883 1.19645 0)
(0.062724 1.96944 0)
(-0.39998 2.51526 0)
(-0.82887 2.78565 0)
(-1.19524 2.78594 0)
(-1.45741 2.55207 0)
(-1.58633 2.13994 0)
(-1.58237 1.58941 0)
(-1.43643 0.973916 0)
(-1.19316 0.420706 0)
(-0.871792 -0.0617221 0)
(-0.510514 -0.42265 0)
(-0.102889 -0.68273 0)
(0.34409 -0.794041 0)
(0.799165 -0.767587 0)
(1.20165 -0.610177 0)
(1.5052 -0.368503 0)
(1.68269 0.00606841 0)
(1.73732 0.350867 0)
(1.69729 0.624641 0)
(1.55384 0.902763 0)
(1.2861 1.13039 0)
(0.901562 1.2715 0)
(0.442274 1.34456 0)
(-0.048594 1.28978 0)
(-0.517452 1.23713 0)
(-0.938085 1.01444 0)
(-1.27962 0.732973 0)
(-1.57278 0.47933 0)
(-1.78521 0.171065 0)
(-1.8491 -0.245349 0)
(-1.76486 -0.619385 0)
(-1.55302 -1.00177 0)
(-1.24669 -1.31416 0)
(-0.89598 -1.56633 0)
(-0.552895 -1.7016 0)
(-0.251164 -1.64242 0)
(0.045476 -1.49839 0)
(0.388313 -1.31385 0)
(0.788066 -1.13052 0)
(1.18076 -0.9086 0)
(1.47766 -0.597242 0)
(1.66742 -0.332824 0)
(1.78011 -0.0851972 0)
(1.83361 0.217913 0)
(1.85105 0.591485 0)
(1.84501 0.942854 0)
(1.79943 1.26705 0)
(1.68089 1.48589 0)
(1.44295 1.68024 0)
(1.09731 1.94042 0)
(0.760292 2.03295 0)
(0.447553 2.05269 0)
(0.156539 1.96287 0)
(-0.164502 1.90777 0)
(-0.518561 1.83595 0)
(-0.857653 1.64805 0)
(-1.18873 1.41745 0)
(-1.48573 1.13076 0)
(-1.72339 0.757634 0)
(-1.93426 0.498153 0)
(-2.0995 0.237061 0)
(-2.17152 -0.0846876 0)
(-2.2195 -0.294544 0)
(-2.14306 -0.629308 0)
(-2.0125 -0.899009 0)
(-1.87238 -1.12085 0)
(-1.73051 -1.27047 0)
(-1.79928 -1.27612 0)
(-1.67155 -1.51713 0)
(-1.89852 -1.53309 0)
(-2.2898 -1.35426 0)
(-1.42316 -1.45834 0)
(-0.115188 -1.61234 0)
(0.564225 -1.57479 0)
(1.00926 -1.57044 0)
(1.04481 -1.25505 0)
(1.20478 -1.19345 0)
(0.674875 -6.21984 0)
(-0.170901 -4.81279 0)
(0.233859 -2.00515 0)
(0.0749883 2.48048 0)
(-0.520377 7.83045 0)
(-1.60647 13.3351 0)
(-3.01008 17.66 0)
(-4.02045 20.5723 0)
(-4.53209 22.0977 0)
(-4.37026 23.1159 0)
(-3.62994 23.8608 0)
(-2.53948 24.9859 0)
(-1.40772 25.7231 0)
(-0.430187 25.8469 0)
(0.195715 25.1728 0)
(0.365076 23.3624 0)
(0.0336167 20.2983 0)
(-0.594179 15.3253 0)
(-1.14176 8.90672 0)
(-1.36798 2.0173 0)
(-1.38947 -5.04393 0)
(-1.13941 -11.6739 0)
(-0.750446 -16.8242 0)
(-0.329386 -20.5064 0)
(-0.0526677 -23.1692 0)
(-0.00843334 -25.0241 0)
(-0.273554 -26.2842 0)
(-0.801487 -27.0716 0)
(-1.51444 -27.5652 0)
(-2.20523 -27.744 0)
(-2.74322 -27.6312 0)
(-2.9882 -26.9924 0)
(-2.86229 -25.7107 0)
(-2.3965 -23.3349 0)
(-1.62861 -20.0272 0)
(-0.709225 -15.6624 0)
(0.248789 -10.5981 0)
(1.06473 -5.2497 0)
(1.67594 -0.0134795 0)
(1.9653 4.7087 0)
(2.00362 8.60368 0)
(1.72807 11.5129 0)
(1.32671 13.202 0)
(0.876644 13.8829 0)
(0.488767 13.6711 0)
(0.280514 12.8188 0)
(0.265945 11.6527 0)
(0.469304 10.3899 0)
(0.807267 9.26094 0)
(1.20758 8.3301 0)
(1.55506 7.61392 0)
(1.76443 7.04167 0)
(1.7639 6.51091 0)
(1.53663 5.93327 0)
(1.09176 5.17573 0)
(0.524875 4.19176 0)
(-0.133135 2.98879 0)
(-0.748321 1.54086 0)
(-1.28508 -0.123491 0)
(-1.61392 -1.85193 0)
(-1.76606 -3.55725 0)
(-1.67815 -5.0272 0)
(-1.42328 -6.22775 0)
(-1.00985 -6.95961 0)
(-0.511984 -7.26326 0)
(-0.00230912 -7.03669 0)
(0.476335 -6.41667 0)
(0.833258 -5.36636 0)
(1.07346 -4.11461 0)
(1.13469 -2.68032 0)
(1.06049 -1.25374 0)
(0.833885 0.126371 0)
(0.50884 1.3167 0)
(0.110089 2.22881 0)
(-0.296741 2.87032 0)
(-0.690431 3.20223 0)
(-1.02032 3.22339 0)
(-1.26137 2.98949 0)
(-1.37918 2.52207 0)
(-1.39532 1.92948 0)
(-1.28153 1.25048 0)
(-1.06698 0.61073 0)
(-0.761315 0.00364167 0)
(-0.427952 -0.451419 0)
(-0.081001 -0.764066 0)
(0.276988 -0.872355 0)
(0.656085 -0.831999 0)
(1.03256 -0.676559 0)
(1.3557 -0.473863 0)
(1.56268 -0.116576 0)
(1.62194 0.259338 0)
(1.57081 0.570701 0)
(1.4345 0.902714 0)
(1.2118 1.15824 0)
(0.904014 1.29983 0)
(0.514944 1.37395 0)
(0.0600366 1.34876 0)
(-0.405122 1.35081 0)
(-0.811663 1.15536 0)
(-1.10365 0.795474 0)
(-1.34162 0.449509 0)
(-1.54435 0.0658189 0)
(-1.66818 -0.365856 0)
(-1.68488 -0.724467 0)
(-1.5705 -1.10739 0)
(-1.32901 -1.4502 0)
(-0.991493 -1.74938 0)
(-0.607718 -1.95002 0)
(-0.249251 -1.96069 0)
(0.0460565 -1.85759 0)
(0.29758 -1.66358 0)
(0.559819 -1.43933 0)
(0.830943 -1.14845 0)
(1.0681 -0.77154 0)
(1.26285 -0.480107 0)
(1.42373 -0.200404 0)
(1.53151 0.16109 0)
(1.57963 0.633774 0)
(1.5788 1.09231 0)
(1.55952 1.4818 0)
(1.53598 1.68641 0)
(1.41862 1.84376 0)
(1.14712 2.08353 0)
(0.814137 2.20398 0)
(0.481793 2.28916 0)
(0.222121 2.20598 0)
(-0.0350237 2.13833 0)
(-0.331748 2.03787 0)
(-0.647887 1.83411 0)
(-0.977146 1.59554 0)
(-1.25603 1.25821 0)
(-1.47515 0.830191 0)
(-1.68832 0.535341 0)
(-1.85148 0.216346 0)
(-1.94264 -0.126902 0)
(-2.04419 -0.353083 0)
(-2.04842 -0.725642 0)
(-2.01087 -1.03056 0)
(-1.92855 -1.27454 0)
(-1.76237 -1.4532 0)
(-1.52447 -1.48986 0)
(-1.12225 -1.71425 0)
(-0.693228 -1.6831 0)
(-0.17344 -1.72717 0)
(0.446247 -2.11936 0)
(0.831736 -2.14697 0)
(1.00418 -1.8566 0)
(1.23515 -1.81256 0)
(0.974733 -1.46585 0)
(1.04625 -1.29719 0)
(0.225832 -6.97228 0)
(-0.392499 -5.09652 0)
(-0.0157301 -2.10837 0)
(0.0855567 2.73008 0)
(-0.16649 8.56978 0)
(-0.879952 14.7044 0)
(-2.08311 19.4054 0)
(-3.00555 22.4462 0)
(-3.49581 24.0366 0)
(-3.49012 25.0691 0)
(-3.00644 25.6497 0)
(-2.14563 26.8059 0)
(-1.19418 27.7027 0)
(-0.298092 28.0014 0)
(0.357114 27.4226 0)
(0.615646 25.5749 0)
(0.351227 22.3161 0)
(-0.276981 16.883 0)
(-0.882126 9.80624 0)
(-1.1675 2.17875 0)
(-1.25026 -5.47477 0)
(-1.07689 -12.793 0)
(-0.771165 -18.5646 0)
(-0.408996 -22.6247 0)
(-0.160148 -25.4335 0)
(-0.0939567 -27.2793 0)
(-0.29213 -28.4556 0)
(-0.711981 -29.1258 0)
(-1.31458 -29.5539 0)
(-1.89609 -29.7056 0)
(-2.3572 -29.5789 0)
(-2.57782 -28.9341 0)
(-2.48316 -27.6275 0)
(-2.10856 -25.1591 0)
(-1.45655 -21.7063 0)
(-0.665962 -17.103 0)
(0.192736 -11.6955 0)
(0.933197 -5.94809 0)
(1.5122 -0.25234 0)
(1.80701 5.09599 0)
(1.8299 9.18518 0)
(1.60746 12.4376 0)
(1.25036 14.3493 0)
(0.830827 15.1312 0)
(0.455502 14.9025 0)
(0.233629 13.9631 0)
(0.167948 12.6715 0)
(0.303479 11.2653 0)
(0.563929 9.99454 0)
(0.902656 8.93641 0)
(1.21353 8.1223 0)
(1.42293 7.48608 0)
(1.45879 6.91411 0)
(1.28903 6.34694 0)
(0.934687 5.52638 0)
(0.468971 4.56829 0)
(-0.10214 3.29454 0)
(-0.627326 1.69221 0)
(-1.09629 -0.0755181 0)
(-1.38033 -1.88505 0)
(-1.53034 -3.70407 0)
(-1.46147 -5.32852 0)
(-1.25754 -6.68603 0)
(-0.912964 -7.53667 0)
(-0.49668 -7.91051 0)
(-0.0664157 -7.70233 0)
(0.353624 -7.05982 0)
(0.670487 -5.93713 0)
(0.905352 -4.57928 0)
(0.977371 -3.00979 0)
(0.941278 -1.43919 0)
(0.759661 0.0850406 0)
(0.492684 1.40961 0)
(0.151082 2.4381 0)
(-0.20377 3.15092 0)
(-0.553287 3.54636 0)
(-0.844133 3.58573 0)
(-1.05135 3.33882 0)
(-1.15709 2.84339 0)
(-1.19661 2.24796 0)
(-1.12823 1.51251 0)
(-0.953664 0.784683 0)
(-0.662567 0.0511426 0)
(-0.326027 -0.518047 0)
(0.00827311 -0.914895 0)
(0.311375 -1.05159 0)
(0.595938 -0.993637 0)
(0.883173 -0.80058 0)
(1.16526 -0.587997 0)
(1.38765 -0.225211 0)
(1.48875 0.160056 0)
(1.47072 0.478308 0)
(1.36034 0.855276 0)
(1.17273 1.14846 0)
(0.92822 1.30499 0)
(0.623276 1.35764 0)
(0.240185 1.31581 0)
(-0.20558 1.34328 0)
(-0.624164 1.17359 0)
(-0.930513 0.798621 0)
(-1.14379 0.424429 0)
(-1.32354 0.0122289 0)
(-1.4704 -0.426496 0)
(-1.56051 -0.792287 0)
(-1.53899 -1.17835 0)
(-1.38993 -1.52227 0)
(-1.14049 -1.80199 0)
(-0.815781 -2.00143 0)
(-0.462506 -2.05615 0)
(-0.139691 -2.03018 0)
(0.106867 -1.89913 0)
(0.309854 -1.70286 0)
(0.505958 -1.39767 0)
(0.675044 -0.942515 0)
(0.852684 -0.592342 0)
(1.04847 -0.263737 0)
(1.23139 0.11838 0)
(1.34486 0.633145 0)
(1.3513 1.1672 0)
(1.26986 1.67576 0)
(1.21755 1.93859 0)
(1.19122 2.06064 0)
(1.08436 2.21593 0)
(0.865203 2.30531 0)
(0.552612 2.42141 0)
(0.29025 2.35052 0)
(0.0594971 2.28848 0)
(-0.179628 2.15362 0)
(-0.464127 1.93906 0)
(-0.802029 1.7138 0)
(-1.08984 1.36318 0)
(-1.3066 0.920517 0)
(-1.50412 0.600861 0)
(-1.62941 0.214447 0)
(-1.71135 -0.14206 0)
(-1.81283 -0.386424 0)
(-1.79208 -0.796045 0)
(-1.70657 -1.1467 0)
(-1.58264 -1.43879 0)
(-1.41799 -1.67706 0)
(-1.26081 -1.76832 0)
(-1.00296 -2.0097 0)
(-0.739809 -2.02063 0)
(-0.417534 -2.08597 0)
(-0.296609 -2.23124 0)
(-0.298933 -2.22756 0)
(-0.0123407 -2.13953 0)
(0.633399 -2.09478 0)
(0.656745 -1.68491 0)
(0.844562 -1.40734 0)
(-0.164841 -7.34585 0)
(-0.580643 -5.18423 0)
(-0.115141 -2.2799 0)
(0.16752 2.72171 0)
(0.0878486 8.94901 0)
(-0.365772 15.5301 0)
(-1.25821 20.4765 0)
(-1.93245 23.5306 0)
(-2.29018 25.1635 0)
(-2.45335 26.2186 0)
(-2.2843 26.6824 0)
(-1.7048 27.9004 0)
(-0.983741 28.9963 0)
(-0.237002 29.4929 0)
(0.38005 29.037 0)
(0.69173 27.2137 0)
(0.510107 23.8538 0)
(-0.0612951 18.0898 0)
(-0.655354 10.4629 0)
(-0.949334 2.34153 0)
(-1.06034 -5.80327 0)
(-0.939359 -13.5804 0)
(-0.709489 -19.7929 0)
(-0.412933 -24.2317 0)
(-0.204828 -27.2052 0)
(-0.133898 -28.9812 0)
(-0.286966 -29.9883 0)
(-0.62207 -30.4839 0)
(-1.1355 -30.8157 0)
(-1.62392 -30.9284 0)
(-2.01451 -30.7913 0)
(-2.20664 -30.1698 0)
(-2.12685 -28.8883 0)
(-1.82061 -26.3995 0)
(-1.26492 -22.8907 0)
(-0.597445 -18.1598 0)
(0.156978 -12.5323 0)
(0.808947 -6.52161 0)
(1.33512 -0.497883 0)
(1.59223 5.03069 0)
(1.63342 9.57454 0)
(1.44778 13.084 0)
(1.1312 15.177 0)
(0.748468 16.0559 0)
(0.396152 15.8264 0)
(0.171134 14.8274 0)
(0.0656295 13.4385 0)
(0.144261 11.9129 0)
(0.334968 10.5183 0)
(0.616496 9.34527 0)
(0.891809 8.44163 0)
(1.09859 7.75241 0)
(1.16433 7.157 0)
(1.07412 6.50448 0)
(0.770219 5.78154 0)
(0.403193 4.8464 0)
(-0.073089 3.51881 0)
(-0.516249 1.85506 0)
(-0.922872 0.0440359 0)
(-1.15878 -1.83044 0)
(-1.29847 -3.74002 0)
(-1.24489 -5.47592 0)
(-1.08897 -6.94519 0)
(-0.808316 -7.89129 0)
(-0.469049 -8.33209 0)
(-0.115637 -8.15577 0)
(0.244996 -7.51182 0)
(0.518247 -6.34722 0)
(0.742258 -4.9176 0)
(0.818287 -3.25162 0)
(0.814812 -1.57539 0)
(0.674202 0.0561058 0)
(0.465316 1.48173 0)
(0.18155 2.57851 0)
(-0.116189 3.37124 0)
(-0.40757 3.8108 0)
(-0.655603 3.86242 0)
(-0.830552 3.60103 0)
(-0.92967 3.11403 0)
(-0.964847 2.47361 0)
(-0.937966 1.69231 0)
(-0.836091 0.933296 0)
(-0.611923 0.152914 0)
(-0.301118 -0.493263 0)
(0.0387269 -0.980552 0)
(0.348489 -1.20785 0)
(0.604342 -1.20388 0)
(0.824015 -1.01474 0)
(1.02769 -0.771492 0)
(1.20947 -0.364071 0)
(1.33093 0.0344637 0)
(1.35082 0.36985 0)
(1.28043 0.77581 0)
(1.11955 1.11166 0)
(0.901349 1.31921 0)
(0.65413 1.3707 0)
(0.363135 1.30324 0)
(0.0119364 1.28819 0)
(-0.360728 1.08524 0)
(-0.687074 0.713936 0)
(-0.932846 0.389897 0)
(-1.11928 0.0188309 0)
(-1.23987 -0.467748 0)
(-1.33201 -0.900552 0)
(-1.36557 -1.29665 0)
(-1.29838 -1.63468 0)
(-1.13981 -1.8964 0)
(-0.915675 -2.08596 0)
(-0.662011 -2.12641 0)
(-0.392496 -2.11904 0)
(-0.162045 -2.02349 0)
(0.0266439 -1.86882 0)
(0.217112 -1.60297 0)
(0.36125 -1.09707 0)
(0.507625 -0.68638 0)
(0.686638 -0.286839 0)
(0.889374 0.123673 0)
(1.07 0.633069 0)
(1.16915 1.11815 0)
(1.09849 1.66006 0)
(0.971372 1.99509 0)
(0.8921 2.20161 0)
(0.863897 2.38087 0)
(0.822735 2.42338 0)
(0.653004 2.48581 0)
(0.425966 2.41045 0)
(0.179507 2.3849 0)
(-0.0336463 2.22731 0)
(-0.271296 1.99001 0)
(-0.592298 1.7659 0)
(-0.895216 1.421 0)
(-1.13544 0.997384 0)
(-1.32679 0.666601 0)
(-1.40721 0.220897 0)
(-1.46546 -0.135285 0)
(-1.546 -0.409059 0)
(-1.52174 -0.856437 0)
(-1.49482 -1.22174 0)
(-1.46693 -1.52205 0)
(-1.40969 -1.76957 0)
(-1.29931 -1.89899 0)
(-1.05686 -2.14513 0)
(-0.850821 -2.16458 0)
(-0.656357 -2.15795 0)
(-0.526848 -2.15034 0)
(-0.315151 -2.21496 0)
(-0.0329483 -2.24902 0)
(0.35505 -2.21682 0)
(0.323439 -1.9012 0)
(0.513919 -1.65097 0)
(-0.397102 -7.43089 0)
(-0.643584 -5.49204 0)
(-0.176724 -2.49605 0)
(0.0981238 2.68806 0)
(0.139565 9.21984 0)
(0.0781221 16.0077 0)
(-0.390194 21.1401 0)
(-0.790317 24.0652 0)
(-1.05519 25.5994 0)
(-1.36966 26.5813 0)
(-1.47199 26.9298 0)
(-1.15162 28.2117 0)
(-0.670206 29.538 0)
(-0.125237 30.2727 0)
(0.378963 30.0044 0)
(0.685801 28.3025 0)
(0.580448 24.9543 0)
(0.107629 18.9966 0)
(-0.427864 10.9108 0)
(-0.670113 2.53509 0)
(-0.783802 -6.01348 0)
(-0.706041 -14.0964 0)
(-0.565546 -20.5805 0)
(-0.367668 -25.3398 0)
(-0.234545 -28.4602 0)
(-0.189823 -30.147 0)
(-0.32337 -30.9738 0)
(-0.588905 -31.2778 0)
(-1.01522 -31.4869 0)
(-1.40398 -31.546 0)
(-1.70616 -31.3977 0)
(-1.8446 -30.8181 0)
(-1.74947 -29.597 0)
(-1.48084 -27.1439 0)
(-0.999328 -23.6522 0)
(-0.451654 -18.8874 0)
(0.185585 -13.1454 0)
(0.722579 -6.98714 0)
(1.16299 -0.749595 0)
(1.36773 5.02076 0)
(1.40241 9.79252 0)
(1.22932 13.4829 0)
(0.947965 15.7074 0)
(0.607474 16.6794 0)
(0.286672 16.4716 0)
(0.0696582 15.4448 0)
(-0.060286 13.9877 0)
(-0.0231788 12.3668 0)
(0.110497 10.8669 0)
(0.344298 9.59359 0)
(0.590372 8.61115 0)
(0.798623 7.88053 0)
(0.883115 7.28387 0)
(0.860202 6.52919 0)
(0.642841 5.96901 0)
(0.343783 5.03417 0)
(-0.0342348 3.67839 0)
(-0.389673 2.03319 0)
(-0.741391 0.206814 0)
(-0.935543 -1.72962 0)
(-1.06179 -3.70965 0)
(-1.02115 -5.51342 0)
(-0.913589 -7.04778 0)
(-0.696977 -8.06409 0)
(-0.43269 -8.56627 0)
(-0.15394 -8.43139 0)
(0.146038 -7.80165 0)
(0.371677 -6.61971 0)
(0.578752 -5.14775 0)
(0.652292 -3.41976 0)
(0.675927 -1.67211 0)
(0.571873 0.0332292 0)
(0.419603 1.53042 0)
(0.196432 2.71442 0)
(-0.0403099 3.52631 0)
(-0.267556 3.98955 0)
(-0.464873 4.05 0)
(-0.616028 3.80095 0)
(-0.702077 3.30893 0)
(-0.700982 2.55823 0)
(-0.692108 1.77435 0)
(-0.679742 1.04175 0)
(-0.591587 0.32844 0)
(-0.380801 -0.32098 0)
(-0.0694843 -0.873344 0)
(0.259366 -1.21432 0)
(0.540963 -1.3094 0)
(0.762707 -1.18967 0)
(0.932981 -0.967169 0)
(1.07179 -0.543932 0)
(1.18378 -0.130799 0)
(1.21223 0.265631 0)
(1.19167 0.664449 0)
(1.07008 1.04063 0)
(0.884953 1.28095 0)
(0.648414 1.38612 0)
(0.384577 1.3771 0)
(0.107443 1.35778 0)
(-0.158409 1.06712 0)
(-0.409134 0.61338 0)
(-0.659992 0.325865 0)
(-0.874779 0.00532503 0)
(-0.97317 -0.543208 0)
(-1.04044 -1.02088 0)
(-1.10695 -1.38143 0)
(-1.12152 -1.68237 0)
(-1.04013 -1.94386 0)
(-0.882619 -2.17705 0)
(-0.727176 -2.22798 0)
(-0.570084 -2.2145 0)
(-0.419056 -2.10683 0)
(-0.277437 -1.94958 0)
(-0.0967953 -1.70456 0)
(0.0983138 -1.23898 0)
(0.262777 -0.820845 0)
(0.426077 -0.380709 0)
(0.581044 0.092551 0)
(0.750121 0.633287 0)
(0.947652 1.04105 0)
(1.03315 1.48926 0)
(0.977774 1.78001 0)
(0.787894 2.15294 0)
(0.631478 2.53151 0)
(0.633353 2.60022 0)
(0.62817 2.57925 0)
(0.495594 2.47649 0)
(0.235121 2.48132 0)
(0.00304932 2.32016 0)
(-0.190526 2.05187 0)
(-0.443787 1.79464 0)
(-0.71978 1.43906 0)
(-0.977246 1.04062 0)
(-1.16441 0.703096 0)
(-1.20947 0.219708 0)
(-1.26291 -0.109264 0)
(-1.33368 -0.40373 0)
(-1.3123 -0.870012 0)
(-1.31627 -1.23352 0)
(-1.31929 -1.53593 0)
(-1.26263 -1.79985 0)
(-1.13001 -1.97698 0)
(-0.897178 -2.22245 0)
(-0.771414 -2.24467 0)