/*--------------------------------*- C++ -*----------------------------------*\
| =========                 |                                                 |
| \\      /  F ield         | OpenFOAM: The Open Source CFD Toolbox           |
|  \\    /   O peration     | Version:  v2012                                 |
|   \\  /    A nd           | Website:  www.openfoam.com                      |
|    \\/     M anipulation  |                                                 |
\*---------------------------------------------------------------------------*/
FoamFile
{
    version     2.0;
    format      ascii;
    class       volScalarField;
    location    "0.08";
    object      p;
}
// * * * * * * * * * * * * * * * * * * * * * * * * * * * * * * * * * * * * * //

dimensions      [1 -1 -2 0 0 0 0];


internalField   nonuniform List<scalar> 
18000
(
527.649
527.432
527.379
527.36
527.357
527.36
527.361
527.348
527.306
527.22
527.08
526.877
526.609
526.276
525.882
525.43
524.93
524.383
523.8
523.186
522.549
521.893
521.228
520.558
519.891
519.231
518.583
517.947
517.326
516.718
516.123
515.535
514.954
514.371
513.784
513.183
512.566
511.923
511.251
510.544
509.802
509.018
508.199
507.337
506.44
505.501
504.532
503.524
502.488
501.42
500.329
499.21
498.074
496.914
495.741
494.549
493.346
492.125
490.898
489.653
488.403
487.136
485.863
484.572
483.274
481.957
480.632
479.287
477.931
476.555
475.165
473.755
472.328
470.882
469.417
467.932
466.426
464.903
463.358
461.798
460.215
458.618
456.999
455.368
453.717
452.055
450.375
448.683
446.977
445.257
443.528
441.782
440.029
438.261
436.486
434.697
432.901
431.094
429.277
427.452
425.617
423.775
421.922
420.063
418.195
416.319
414.437
412.546
410.65
408.747
406.837
404.922
402.999
401.075
399.142
397.208
395.268
393.326
391.38
389.431
387.478
385.525
383.567
381.614
379.653
377.697
375.735
373.777
371.818
369.864
367.91
365.963
364.012
362.07
360.123
358.186
356.248
354.316
352.389
350.466
348.547
346.644
344.736
342.849
340.959
339.09
337.238
335.407
333.627
331.859
527.656
527.442
527.39
527.367
527.361
527.359
527.353
527.332
527.28
527.185
527.037
526.831
526.562
526.232
525.843
525.398
524.904
524.366
523.791
523.184
522.555
521.908
521.253
520.593
519.935
519.282
518.639
518.007
517.387
516.779
516.182
515.591
515.004
514.415
513.82
513.211
512.585
511.933
511.254
510.541
509.794
509.006
508.184
507.319
506.421
505.482
504.512
503.505
502.471
501.405
500.317
499.2
498.067
496.91
495.739
494.549
493.349
492.131
490.905
489.662
488.413
487.146
485.874
484.582
483.284
481.966
480.641
479.294
477.938
476.56
475.169
473.757
472.33
470.882
469.416
467.93
466.424
464.901
463.355
461.795
460.211
458.615
456.996
455.365
453.714
452.052
450.372
448.68
446.974
445.255
443.525
441.779
440.026
438.258
436.483
434.694
432.898
431.091
429.274
427.449
425.613
423.772
421.918
420.059
418.19
416.313
414.431
412.54
410.644
408.74
406.83
404.914
402.991
401.065
399.132
397.198
395.257
393.315
391.368
389.418
387.464
385.511
383.551
381.596
379.633
377.676
375.71
373.749
371.784
369.823
367.86
365.901
363.937
361.981
360.022
358.077
356.137
354.206
352.282
350.364
348.453
346.557
344.658
342.782
340.902
339.037
337.19
335.362
333.595
331.836
527.666
527.458
527.406
527.38
527.368
527.358
527.343
527.308
527.242
527.135
526.98
526.77
526.503
526.178
525.797
525.362
524.879
524.352
523.788
523.192
522.574
521.94
521.296
520.648
520
519.356
518.72
518.092
517.474
516.866
516.266
515.67
515.076
514.477
513.871
513.25
512.612
511.95
511.261
510.539
509.785
508.992
508.165
507.298
506.398
505.458
504.489
503.483
502.452
501.388
500.303
499.19
498.06
496.906
495.74
494.552
493.356
492.141
490.918
489.677
488.429
487.163
485.89
484.598
483.3
481.981
480.654
479.305
477.947
476.567
475.175
473.761
472.333
470.882
469.415
467.928
466.421
464.897
463.351
461.789
460.206
458.609
456.99
455.36
453.708
452.047
450.366
448.675
446.969
445.25
443.519
441.774
440.021
438.252
436.478
434.688
432.892
431.084
429.267
427.442
425.606
423.764
421.909
420.05
418.179
416.303
414.419
412.527
410.631
408.726
406.816
404.9
402.976
401.05
399.116
397.181
395.24
393.297
391.35
389.4
387.447
385.493
383.534
381.58
379.618
377.663
375.7
373.743
371.783
369.827
367.871
365.92
363.965
362.021
360.071
358.134
356.195
354.262
352.336
350.412
348.495
346.592
344.68
342.792
340.903
339.032
337.181
335.348
333.583
331.821
527.679
527.479
527.428
527.397
527.377
527.355
527.326
527.273
527.19
527.07
526.904
526.69
526.425
526.106
525.735
525.313
524.845
524.333
523.784
523.205
522.603
521.985
521.357
520.724
520.09
519.457
518.829
518.206
517.591
516.982
516.378
515.774
515.17
514.558
513.938
513.301
512.648
511.971
511.269
510.535
509.771
508.971
508.139
507.267
506.366
505.425
504.457
503.453
502.425
501.365
500.284
499.176
498.05
496.902
495.74
494.558
493.366
492.154
490.935
489.696
488.45
487.185
485.913
484.62
483.32
482
480.671
479.32
477.96
476.577
475.183
473.765
472.335
470.882
469.414
467.924
466.417
464.89
463.344
461.782
460.198
458.601
456.982
455.352
453.7
452.039
450.358
448.668
446.961
445.242
443.512
441.767
440.014
438.245
436.471
434.68
432.884
431.075
429.259
427.433
425.596
423.753
421.897
420.037
418.166
416.288
414.404
412.511
410.614
408.707
406.797
404.879
402.956
401.029
399.093
397.159
395.216
393.273
391.325
389.374
387.421
385.466
383.508
381.554
379.591
377.637
375.674
373.718
371.759
369.802
367.847
365.895
363.94
361.998
360.048
358.112
356.173
354.24
352.315
350.389
348.472
346.568
344.654
342.763
340.865
338.984
337.129
335.293
333.541
331.782
527.695
527.505
527.454
527.416
527.387
527.351
527.304
527.232
527.131
526.995
526.819
526.6
526.336
526.024
525.664
525.256
524.804
524.309
523.78
523.22
522.638
522.039
521.429
520.813
520.194
519.574
518.956
518.34
517.728
517.117
516.508
515.895
515.279
514.652
514.016
513.362
512.691
511.997
511.279
510.533
509.757
508.948
508.109
507.233
506.329
505.387
504.421
503.419
502.394
501.338
500.262
499.16
498.04
496.898
495.742
494.566
493.378
492.171
490.954
489.719
488.475
487.211
485.939
484.646
483.345
482.022
480.691
479.337
477.975
476.588
475.191
473.771
472.338
470.882
469.412
467.92
466.411
464.883
463.336
461.772
460.188
458.591
456.972
455.342
453.69
452.03
450.349
448.659
446.951
445.234
443.502
441.758
440.005
438.236
436.462
434.67
432.875
431.064
429.248
427.42
425.583
423.739
421.882
420.022
418.149
416.271
414.385
412.491
410.593
408.684
406.774
404.854
402.93
401.002
399.066
397.131
395.186
393.243
391.295
389.343
387.39
385.433
383.475
381.519
379.557
377.603
375.638
373.683
371.723
369.766
367.811
365.858
363.905
361.962
360.011
358.076
356.135
354.202
352.276
350.348
348.433
346.526
344.611
342.726
340.835
338.96
337.105
335.262
333.516
331.756
527.713
527.534
527.484
527.438
527.397
527.346
527.28
527.187
527.068
526.916
526.729
526.505
526.242
525.936
525.586
525.193
524.758
524.283
523.775
523.238
522.678
522.1
521.51
520.911
520.309
519.702
519.096
518.486
517.877
517.265
516.649
516.027
515.398
514.755
514.102
513.428
512.74
512.027
511.293
510.532
509.743
508.925
508.078
507.197
506.29
505.348
504.382
503.382
502.361
501.31
500.24
499.143
498.03
496.894
495.744
494.574
493.391
492.189
490.976
489.744
488.502
487.24
485.968
484.674
483.372
482.047
480.714
479.357
477.991
476.601
475.201
473.777
472.342
470.882
469.41
467.914
466.405
464.874
463.327
461.762
460.177
458.579
456.96
455.33
453.678
452.019
450.337
448.649
446.94
445.224
443.492
441.748
439.995
438.225
436.451
434.658
432.864
431.051
429.236
427.406
425.568
423.723
421.865
420.004
418.129
416.252
414.363
412.469
410.569
408.659
406.748
404.826
402.902
400.972
399.035
397.099
395.153
393.21
391.259
389.306
387.353
385.394
383.437
381.48
379.517
377.563
375.597
373.642
371.681
369.724
367.77
365.815
363.862
361.919
359.967
358.033
356.089
354.157
352.232
350.302
348.389
346.48
344.565
342.682
340.79
338.914
337.059
335.207
333.472
331.715
527.733
527.564
527.514
527.461
527.409
527.341
527.255
527.142
527.004
526.837
526.639
526.409
526.146
525.846
525.507
525.128
524.711
524.257
523.771
523.257
522.721
522.165
521.596
521.016
520.429
519.837
519.241
518.638
518.031
517.417
516.795
516.163
515.521
514.861
514.191
513.499
512.791
512.06
511.308
510.532
509.73
508.902
508.046
507.161
506.25
505.307
504.342
503.345
502.329
501.282
500.218
499.127
498.02
496.891
495.748
494.584
493.406
492.209
491
489.771
488.531
487.27
485.998
484.704
483.4
482.073
480.737
479.377
478.009
476.614
475.212
473.783
472.345
470.882
469.408
467.909
466.398
464.865
463.317
461.75
460.166
458.567
456.948
455.318
453.666
452.007
450.325
448.638
446.928
445.213
443.48
441.738
439.983
438.214
436.44
434.646
432.852
431.037
429.222
427.39
425.552
423.706
421.846
419.985
418.107
416.23
414.339
412.444
410.543
408.631
406.72
404.795
402.871
400.939
399.001
397.065
395.117
393.173
391.221
389.267
387.314
385.353
383.397
381.437
379.474
377.52
375.552
373.598
371.636
369.678
367.725
365.768
363.816
361.871
359.918
357.985
356.039
354.108
352.183
350.251
348.341
346.429
344.512
342.632
340.736
338.862
337.01
335.153
333.437
331.683
527.753
527.595
527.546
527.485
527.422
527.337
527.232
527.099
526.943
526.76
526.552
526.316
526.053
525.758
525.428
525.064
524.665
524.231
523.769
523.278
522.765
522.233
521.684
521.123
520.552
519.973
519.387
518.791
518.186
517.571
516.942
516.3
515.644
514.969
514.282
513.57
512.845
512.095
511.326
510.535
509.719
508.88
508.017
507.125
506.212
505.268
504.304
503.309
502.296
501.255
500.196
499.112
498.012
496.889
495.752
494.594
493.422
492.23
491.025
489.799
488.561
487.3
486.029
484.734
483.429
482.1
480.762
479.398
478.026
476.628
475.222
473.79
472.349
470.881
469.405
467.903
466.391
464.855
463.307
461.738
460.154
458.554
456.935
455.305
453.653
451.995
450.312
448.626
446.915
445.202
443.467
441.726
439.971
438.202
436.427
434.633
432.839
431.022
429.207
427.373
425.535
423.687
421.826
419.965
418.084
416.207
414.314
412.418
410.515
408.601
406.69
404.762
402.839
400.904
398.965
397.028
395.078
393.134
391.18
389.225
387.272
385.308
383.354
381.392
379.428
377.474
375.504
373.551
371.587
369.629
367.676
365.717
363.766
361.821
359.866
357.934
355.985
354.056
352.131
350.196
348.289
346.374
344.456
342.579
340.679
338.806
336.957
335.092
333.394
331.645
527.773
527.626
527.577
527.51
527.437
527.336
527.212
527.059
526.886
526.689
526.47
526.229
525.964
525.673
525.352
525.002
524.62
524.207
523.768
523.301
522.811
522.301
521.773
521.23
520.675
520.108
519.533
518.942
518.339
517.721
517.086
516.435
515.766
515.076
514.372
513.642
512.899
512.131
511.345
510.539
509.711
508.862
507.989
507.093
506.176
505.23
504.268
503.275
502.266
501.229
500.176
499.098
498.004
496.889
495.757
494.605
493.438
492.251
491.049
489.826
488.59
487.331
486.059
484.764
483.458
482.126
480.786
479.419
478.044
476.642
475.233
473.796
472.353
470.881
469.403
467.898
466.384
464.846
463.297
461.726
460.141
458.54
456.922
455.292
453.64
451.982
450.299
448.614
446.902
445.191
443.454
441.715
439.958
438.189
436.414
434.619
432.825
431.006
429.192
427.355
425.518
423.667
421.806
419.943
418.06
416.183
414.287
412.391
410.486
408.57
406.659
404.728
402.805
400.868
398.928
396.99
395.038
393.095
391.138
389.182
387.228
385.263
383.309
381.345
379.382
377.427
375.454
373.503
371.537
369.578
367.626
365.664
363.715
361.768
359.812
357.882
355.929
354.002
352.077
350.139
348.236
346.317
344.398
342.524
340.618
338.747
336.902
335.026
333.35
331.609
527.791
527.658
527.608
527.536
527.453
527.336
527.195
527.023
526.835
526.624
526.397
526.148
525.882
525.594
525.281
524.944
524.579
524.186
523.769
523.324
522.856
522.368
521.859
521.335
520.796
520.24
519.674
519.087
518.487
517.867
517.225
516.565
515.884
515.179
514.46
513.713
512.952
512.168
511.366
510.546
509.704
508.845
507.964
507.063
506.142
505.196
504.233
503.243
502.238
501.205
500.158
499.086
497.998
496.889
495.763
494.617
493.455
492.272
491.073
489.853
488.618
487.36
486.089
484.793
483.485
482.152
480.809
479.439
478.061
476.656
475.244
473.803
472.357
470.882
469.402
467.892
466.378
464.836
463.287
461.714
460.13
458.527
456.909
455.278
453.627
451.969
450.286
448.602
446.889
445.179
443.441
441.703
439.944
438.177
436.401
434.604
432.811
430.989
429.177
427.336
425.5
423.647
421.784
419.921
418.035
416.159
414.259
412.363
410.456
408.538
406.627
404.693
402.771
400.831
398.891
396.952
394.996
393.054
391.094
389.139
387.184
385.216
383.264
381.296
379.334
377.378
375.404
373.455
371.485
369.527
367.575
365.61
363.663
361.714
359.756
357.828
355.872
353.948
352.021
350.079
348.182
346.258
344.338
342.469
340.555
338.687
336.845
334.956
333.304
331.571
527.808
527.688
527.639
527.563
527.469
527.338
527.18
526.991
526.789
526.567
526.331
526.076
525.808
525.522
525.216
524.891
524.541
524.166
523.771
523.346
522.9
522.433
521.943
521.436
520.912
520.367
519.809
519.227
518.627
518.005
517.358
516.689
515.997
515.278
514.544
513.781
513.005
512.205
511.388
510.554
509.7
508.832
507.942
507.036
506.111
505.164
504.202
503.213
502.212
501.183
500.142
499.075
497.994
496.89
495.77
494.629
493.471
492.292
491.097
489.879
488.645
487.389
486.117
484.821
483.512
482.177
480.831
479.459
478.078
476.669
475.254
473.809
472.361
470.882
469.4
467.887
466.372
464.827
463.278
461.702
460.118
458.514
456.896
455.265
453.613
451.956
450.272
448.59
446.876
445.168
443.428
441.692
439.931
438.164
436.387
434.59
432.796
430.973
429.161
427.317
425.482
423.625
421.763
419.898
418.01
416.134
414.23
412.335
410.424
408.507
406.594
404.658
402.737
400.793
398.853
396.912
394.955
393.014
391.05
389.096
387.14
385.169
383.219
381.247
379.286
377.329
375.352
373.406
371.432
369.475
367.524
365.554
363.611
361.659
359.701
357.774
355.813
353.893
351.964
350.019
348.127
346.197
344.278
342.413
340.491
338.627
336.788
334.884
333.26
331.534
527.821
527.716
527.67
527.59
527.485
527.34
527.168
526.964
526.75
526.518
526.273
526.013
525.742
525.458
525.158
524.843
524.507
524.15
523.773
523.369
522.943
522.496
522.024
521.534
521.023
520.489
519.938
519.359
518.76
518.136
517.482
516.806
516.103
515.372
514.625
513.846
513.057
512.241
511.411
510.565
509.699
508.822
507.924
507.013
506.084
505.135
504.174
503.187
502.189
501.164
500.128
499.066
497.991
496.892
495.777
494.641
493.487
492.312
491.119
489.904
488.672
487.416
486.144
484.847
483.537
482.2
480.853
479.477
478.094
476.682
475.264
473.816
472.365
470.882
469.399
467.883
466.366
464.819
463.269
461.691
460.108
458.502
456.884
455.252
453.601
451.943
450.26
448.578
446.863
445.156
443.414
441.68
439.917
438.151
436.372
434.575
432.782
430.956
429.145
427.297
425.463
423.603
421.741
419.874
417.984
416.108
414.201
412.307
410.393
408.475
406.562
404.622
402.703
400.754
398.816
396.873
394.914
392.974
391.006
389.052
387.095
385.122
383.174
381.198
379.239
377.28
375.301
373.357
371.379
369.424
367.472
365.499
363.56
361.604
359.645
357.72
355.753
353.839
351.907
349.958
348.073
346.136
344.217
342.357
340.425
338.567
336.731
334.809
333.216
331.498
527.835
527.744
527.7
527.617
527.5
527.344
527.159
526.942
526.718
526.475
526.223
525.957
525.685
525.401
525.106
524.801
524.477
524.135
523.777
523.391
522.984
522.556
522.101
521.626
521.128
520.603
520.06
519.483
518.885
518.258
517.599
516.916
516.203
515.461
514.701
513.909
513.106
512.276
511.434
510.576
509.699
508.815
507.909
506.993
506.061
505.111
504.149
503.163
502.169
501.147
500.116
499.059
497.989
496.895
495.785
494.653
493.503
492.332
491.141
489.928
488.697
487.442
486.17
484.873
483.561
482.223
480.873
479.495
478.109
476.694
475.274
473.822
472.369
470.883
469.398
467.879
466.361
464.811
463.261
461.681
460.098
458.49
456.874
455.24
453.589
451.931
450.247
448.566
446.85
445.145
443.401
441.668
439.903
438.139
436.357
434.56
432.766
430.939
429.129
427.277
425.445
423.58
421.719
419.849
417.958
416.083
414.171
412.28
410.361
408.443
406.529
404.587
402.67
400.716
398.779
396.834
394.873
392.934
390.962
389.01
387.05
385.076
383.131
381.149
379.193
377.231
375.251
373.309
371.326
369.374
367.421
365.444
363.509
361.548
359.59
357.666
355.694
353.786
351.85
349.897
348.02
346.075
344.157
342.303
340.36
338.508
336.675
334.734
333.174
331.462
527.846
527.771
527.729
527.643
527.515
527.348
527.153
526.926
526.692
526.44
526.18
525.909
525.635
525.352
525.061
524.765
524.452
524.123
523.782
523.412
523.023
522.613
522.173
521.713
521.226
520.71
520.174
519.599
519.001
518.372
517.707
517.018
516.295
515.543
514.773
513.968
513.154
512.311
511.458
510.589
509.702
508.81
507.897
506.977
506.04
505.089
504.127
503.143
502.151
501.133
500.106
499.053
497.988
496.898
495.793
494.666
493.519
492.351
491.162
489.951
488.72
487.466
486.193
484.896
483.583
482.244
480.892
479.512
478.123
476.705
475.283
473.828
472.373
470.884
469.397
467.875
466.357
464.804
463.253
461.671
460.089
458.48
456.864
455.229
453.579
451.92
450.236
448.555
446.838
445.134
443.387
441.657
439.888
438.126
436.343
434.546
432.751
430.922
429.113
427.258
425.427
423.558
421.697
419.825
417.933
416.057
414.142
412.253
410.33
408.413
406.497
404.552
402.637
400.678
398.743
396.795
394.833
392.895
390.918
388.97
387.006
385.031
383.088
381.1
379.148
377.182
375.201
373.263
371.274
369.324
367.37
365.39
363.46
361.493
359.536
357.614
355.634
353.734
351.793
349.837
347.968
346.015
344.097
342.25
340.294
338.451
336.62
334.657
333.133
331.43
527.857
527.798
527.757
527.67
527.529
527.352
527.15
526.913
526.671
526.411
526.144
525.868
525.593
525.31
525.023
524.734
524.43
524.113
523.788
523.432
523.06
522.666
522.241
521.795
521.318
520.81
520.28
519.706
519.109
518.477
517.807
517.113
516.381
515.62
514.84
514.023
513.199
512.345
511.481
510.602
509.707
508.808
507.888
506.964
506.023
505.071
504.109
503.126
502.136
501.121
500.098
499.049
497.988
496.903
495.802
494.678
493.534
492.369
491.182
489.973
488.743
487.489
486.216
484.918
483.604
482.263
480.909
479.527
478.137
476.716
475.291
473.834
472.377
470.885
469.396
467.872
466.352
464.797
463.246
461.662
460.08
458.469
456.854
455.218
453.569
451.909
450.225
448.544
446.826
445.123
443.375
441.646
439.874
438.114
436.328
434.532
432.735
430.905
429.096
427.238
425.409
423.536
421.677
419.802
417.908
416.033
414.114
412.227
410.298
408.383
406.465
404.518
402.605
400.641
398.709
396.757
394.794
392.858
390.876
388.93
386.963
384.987
383.046
381.052
379.104
377.135
375.153
373.217
371.222
369.277
367.321
365.337
363.412
361.439
359.484
357.562
355.576
353.684
351.737
349.777
347.918
345.954
344.038
342.198
340.229
338.395
336.567
334.579
333.094
331.4
527.864
527.824
527.785
527.696
527.542
527.357
527.148
526.903
526.655
526.389
526.115
525.835
525.557
525.275
524.99
524.708
524.411
524.106
523.794
523.452
523.095
522.717
522.304
521.871
521.403
520.903
520.378
519.806
519.208
518.574
517.899
517.2
516.46
515.692
514.903
514.075
513.242
512.377
511.504
510.617
509.713
508.808
507.881
506.954
506.009
505.056
504.093
503.111
502.124
501.111
500.092
499.046
497.989
496.908
495.811
494.69
493.549
492.386
491.201
489.993
488.764
487.511
486.237
484.939
483.623
482.281
480.926
479.542
478.149
476.726
475.299
473.839
472.38
470.886
469.396
467.869
466.349
464.791
463.24
461.654
460.072
458.459
456.844
455.207
453.559
451.898
450.215
448.533
446.815
445.113
443.362
441.635
439.86
438.103
436.313
434.519
432.72
430.888
429.08
427.218
425.392
423.514
421.657
419.779
417.885
416.009
414.086
412.201
410.267
408.354
406.434
404.485
402.573
400.604
398.675
396.719
394.756
392.821
390.834
388.892
386.92
384.944
383.005
381.005
379.062
377.088
375.106
373.173
371.171
369.231
367.272
365.285
363.366
361.386
359.433
357.512
355.518
353.636
351.682
349.719
347.869
345.895
343.981
342.148
340.164
338.342
336.515
334.502
333.057
331.376
527.87
527.848
527.811
527.721
527.555
527.365
527.149
526.897
526.643
526.371
526.091
525.807
525.528
525.245
524.963
524.686
524.396
524.101
523.801
523.47
523.128
522.764
522.362
521.941
521.482
520.989
520.469
519.897
519.3
518.663
517.983
517.28
516.533
515.757
514.96
514.124
513.283
512.408
511.527
510.632
509.721
508.81
507.877
506.947
505.998
505.044
504.08
503.099
502.114
501.103
500.088
499.045
497.992
496.914
495.82
494.702
493.563
492.402
491.219
490.013
488.783
487.531
486.256
484.958
483.641
482.298
480.941
479.556
478.161
476.736
475.307
473.845
472.384
470.887
469.396
467.866
466.345
464.785
463.234
461.646
460.064
458.449
456.834
455.196
453.548
451.887
450.204
448.522
446.803
445.102
443.349
441.625
439.846
438.091
436.298
434.505
432.705
430.873
429.065
427.199
425.375
423.492
421.638
419.755
417.861
415.985
414.059
412.176
410.236
408.326
406.403
404.453
402.543
400.568
398.643
396.682
394.719
392.785
390.794
388.856
386.878
384.904
382.966
380.959
379.022
377.042
375.061
373.13
371.12
369.187
367.224
365.234
363.322
361.333
359.384
357.462
355.461
353.591
351.627
349.661
347.823
345.837
343.925
342.101
340.099
338.291
336.466
334.424
333.021
331.355
527.877
527.871
527.837
527.746
527.569
527.375
527.153
526.894
526.634
526.357
526.072
525.785
525.505
525.221
524.941
524.669
524.384
524.097
523.809
523.488
523.159
522.807
522.416
522.007
521.555
521.068
520.553
519.981
519.384
518.745
518.061
517.354
516.599
515.818
515.014
514.169
513.322
512.437
511.55
510.647
509.73
508.813
507.875
506.942
505.99
505.034
504.07
503.09
502.106
501.097
500.085
499.044
497.995
496.92
495.829
494.713
493.577
492.418
491.236
490.031
488.801
487.549
486.274
484.976
483.657
482.314
480.955
479.568
478.171
476.745
475.314
473.85
472.387
470.888
469.395
467.864
466.342
464.78
463.23
461.639
460.057
458.44
456.826
455.185
453.539
451.876
450.194
448.512
446.792
445.092
443.336
441.614
439.832
438.08
436.282
434.492
432.689
430.858
429.049
427.18
425.359
423.47
421.619
419.732
417.839
415.962
414.032
412.153
410.206
408.299
406.373
404.423
402.514
400.532
398.612
396.646
394.685
392.75
390.754
388.821
386.838
384.865
382.928
380.915
378.984
376.998
375.018
373.089
371.071
369.145
367.177
365.185
363.279
361.281
359.337
357.415
355.406
353.548
351.574
349.605
347.779
345.78
343.871
342.055
340.036
338.243
336.418
334.347
332.988
331.339
527.88
527.892
527.862
527.77
527.583
527.388
527.16
526.895
526.629
526.348
526.058
525.768
525.487
525.202
524.923
524.655
524.375
524.096
523.817
523.506
523.188
522.848
522.466
522.067
521.622
521.14
520.63
520.057
519.461
518.82
518.131
517.421
516.66
515.873
515.063
514.211
513.358
512.465
511.572
510.662
509.739
508.818
507.875
506.939
505.984
505.027
504.062
503.082
502.1
501.093
500.084
499.045
497.999
496.926
495.838
494.724
493.59
492.433
491.251
490.047
488.818
487.567
486.291
484.992
483.673
482.329
480.968
479.58
478.181
476.753
475.32
473.855
472.39
470.889
469.395
467.862
466.339
464.775
463.225
461.632
460.051
458.432
456.82
455.176
453.531
451.866
450.185
448.501
446.782
445.082
443.324
441.604
439.818
438.069
436.267
434.48
432.673
430.843
429.033
427.162
425.343
423.45
421.601
419.709
417.817
415.939
414.007
412.13
410.177
408.274
406.343
404.393
402.486
400.499
398.583
396.612
394.652
392.717
390.715
388.788
386.799
384.827
382.891
380.872
378.948
376.955
374.976
373.049
371.023
369.105
367.132
365.137
363.239
361.231
359.293
357.369
355.351
353.507
351.522
349.551
347.738
345.724
343.819
342.012
339.973
338.197
336.374
334.27
332.956
331.326
527.884
527.912
527.886
527.794
527.596
527.401
527.169
526.898
526.627
526.342
526.048
525.756
525.473
525.187
524.91
524.645
524.368
524.096
523.827
523.522
523.215
522.886
522.512
522.122
521.683
521.206
520.7
520.127
519.531
518.888
518.196
517.483
516.715
515.925
515.108
514.25
513.392
512.491
511.593
510.677
509.749
508.824
507.876
506.938
505.98
505.023
504.056
503.077
502.096
501.09
500.083
499.046
498.004
496.932
495.847
494.735
493.603
492.447
491.266
490.063
488.834
487.583
486.307
485.008
483.687
482.342
480.98
479.591
478.191
476.761
475.326
473.859
472.393
470.89
469.395
467.86
466.337
464.771
463.221
461.625
460.046
458.424
456.814
455.168
453.524
451.857
450.177
448.491
446.773
445.072
443.313
441.595
439.805
438.059
436.254
434.468
432.657
430.828
429.017
427.145
425.327
423.429
421.584
419.688
417.798
415.917
413.983
412.108
410.149
408.25
406.315
404.365
402.46
400.466
398.555
396.578
394.62
392.685
390.678
388.756
386.76
384.792
382.855
380.83
378.913
376.912
374.937
373.011
370.977
369.067
367.088
365.092
363.2
361.182
359.251
357.324
355.298
353.469
351.472
349.498
347.699
345.669
343.769
341.971
339.912
338.153
336.332
334.194
332.926
331.316
527.886
527.93
527.908
527.816
527.611
527.414
527.178
526.901
526.627
526.339
526.041
525.746
525.463
525.176
524.899
524.639
524.364
524.098
523.837
523.538
523.241
522.921
522.554
522.173
521.739
521.267
520.764
520.191
519.595
518.95
518.255
517.539
516.766
515.971
515.15
514.286
513.423
512.516
511.614
510.692
509.76
508.831
507.878
506.939
505.977
505.019
504.052
503.074
502.093
501.089
500.084
499.049
498.009
496.939
495.855
494.745
493.615
492.46
491.28
490.078
488.849
487.598
486.321
485.022
483.7
482.354
480.991
479.601
478.199
476.768
475.332
473.863
472.396
470.892
469.395
467.858
466.335
464.767
463.217
461.62
460.041
458.417
456.808
455.16
453.517
451.848
450.169
448.482
446.764
445.062
443.303
441.586
439.793
438.049
436.241
434.457
432.643
430.814
429.001
427.128
425.312
423.408
421.568
419.668
417.779
415.896
413.959
412.088
410.121
408.227
406.287
404.338
402.433
400.435
398.529
396.544
394.59
392.654
390.642
388.726
386.722
384.758
382.821
380.789
378.881
376.871
374.9
372.975
370.932
369.032
367.045
365.048
363.164
361.134
359.211
357.281
355.247
353.434
351.423
349.447
347.662
345.616
343.721
341.932
339.852
338.112
336.292
334.119
332.898
331.308
527.889
527.948
527.928
527.838
527.626
527.428
527.188
526.907
526.629
526.339
526.037
525.74
525.457
525.168
524.892
524.634
524.362
524.101
523.847
523.554
523.265
522.954
522.593
522.22
521.79
521.322
520.823
520.249
519.653
519.007
518.308
517.591
516.812
516.014
515.189
514.32
513.453
512.54
511.634
510.707
509.771
508.839
507.882
506.941
505.976
505.018
504.049
503.072
502.092
501.088
500.086
499.052
498.014
496.946
495.864
494.756
493.626
492.473
491.294
490.092
488.863
487.612
486.334
485.035
483.712
482.366
481.001
479.61
478.207
476.775
475.337
473.867
472.398
470.893
469.395
467.857
466.333
464.763
463.213
461.614
460.036
458.41
456.802
455.152
453.511
451.839
450.161
448.473
446.755
445.052
443.292
441.576
439.78
438.04
436.227
434.446
432.628
430.801
428.987
427.113
425.297
423.388
421.551
419.646
417.76
415.876
413.937
412.068
410.095
408.206
406.26
404.313
402.408
400.404
398.504
396.512
394.561
392.625
390.609
388.698
386.685
384.726
382.788
380.751
378.85
376.831
374.864
372.94
370.888
368.999
367.003
365.006
363.129
361.088
359.174
357.24
355.197
353.401
351.376
349.398
347.628
345.564
343.675
341.896
339.793
338.074
336.255
334.045
332.872
331.302
527.89
527.964
527.949
527.859
527.642
527.443
527.199
526.914
526.633
526.341
526.035
525.737
525.453
525.163
524.887
524.632
524.361
524.105
523.858
523.569
523.288
522.984
522.628
522.263
521.837
521.372
520.876
520.301
519.707
519.058
518.357
517.638
516.854
516.054
515.224
514.351
513.481
512.562
511.653
510.721
509.782
508.847
507.886
506.944
505.977
505.018
504.048
503.071
502.092
501.089
500.089
499.055
498.019
496.952
495.872
494.765
493.637
492.485
491.306
490.105
488.875
487.625
486.347
485.047
483.723
482.376
481.01
479.619
478.214
476.781
475.342
473.871
472.401
470.894
469.396
467.856
466.331
464.76
463.209
461.609
460.032
458.404
456.796
455.144
453.504
451.831
450.154
448.464
446.747
445.044
443.282
441.566
439.767
438.03
436.213
434.435
432.615
430.788
428.972
427.097
425.283
423.37
421.536
419.625
417.742
415.855
413.916
412.048
410.069
408.186
406.234
404.29
402.385
400.375
398.48
396.481
394.534
392.596
390.577
388.672
386.65
384.696
382.757
380.715
378.821
376.792
374.831
372.907
370.846
368.968
366.963
364.967
363.096
361.043
359.139
357.201
355.148
353.371
351.33
349.35
347.596
345.513
343.632
341.861
339.735
338.038
336.22
333.972
332.848
331.297
527.891
527.979
527.97
527.88
527.658
527.457
527.211
526.922
526.638
526.345
526.035
525.736
525.452
525.16
524.885
524.632
524.362
524.11
523.87
523.583
523.31
523.012
522.661
522.302
521.879
521.418
520.925
520.349
519.755
519.105
518.402
517.681
516.893
516.09
515.256
514.379
513.507
512.582
511.671
510.735
509.793
508.855
507.891
506.947
505.978
505.019
504.048
503.071
502.092
501.091
500.092
499.059
498.025
496.959
495.881
494.775
493.648
492.496
491.317
490.116
488.887
487.636
486.358
485.058
483.733
482.386
481.018
479.627
478.22
476.787
475.346
473.874
472.403
470.895
469.396
467.855
466.329
464.757
463.206
461.605
460.027
458.398
456.791
455.137
453.498
451.823
450.148
448.455
446.739
445.035
443.273
441.557
439.755
438.021
436.2
434.425
432.601
430.776
428.958
427.081
425.269
423.352
421.522
419.606
417.725
415.836
413.896
412.03
410.044
408.166
406.209
404.268
402.363
400.347
398.459
396.451
394.508
392.568
390.545
388.647
386.616
384.668
382.727
380.679
378.794
376.755
374.8
372.875
370.806
368.938
366.924
364.929
363.065
360.999
359.106
357.163
355.101
353.342
351.286
349.305
347.566
345.464
343.591
341.829
339.679
338.005
336.189
333.902
332.826
331.293
527.892
527.994
527.99
527.901
527.674
527.472
527.224
526.93
526.644
526.35
526.037
525.736
525.453
525.159
524.884
524.634
524.364
524.116
523.881
523.597
523.33
523.038
522.691
522.338
521.918
521.46
520.97
520.392
519.799
519.148
518.442
517.72
516.928
516.123
515.286
514.406
513.531
512.602
511.688
510.749
509.804
508.864
507.897
506.952
505.98
505.021
504.049
503.073
502.094
501.093
500.096
499.064
498.031
496.966
495.889
494.783
493.657
492.506
491.328
490.128
488.898
487.647
486.368
485.068
483.742
482.395
481.026
479.634
478.226
476.792
475.35
473.878
472.405
470.896
469.396
467.854
466.328
464.755
463.204
461.601
460.023
458.392
456.787
455.132
453.493
451.816
450.141
448.447
446.732
445.027