/*--------------------------------*- C++ -*----------------------------------*\
| =========                 |                                                 |
| \\      /  F ield         | OpenFOAM: The Open Source CFD Toolbox           |
|  \\    /   O peration     | Version:  v2012                                 |
|   \\  /    A nd           | Website:  www.openfoam.com                      |
|    \\/     M anipulation  |                                                 |
\*---------------------------------------------------------------------------*/
FoamFile
{
    version     2.0;
    format      ascii;
    class       volScalarField;
    location    "0.08";
    object      rho_0;
}
// * * * * * * * * * * * * * * * * * * * * * * * * * * * * * * * * * * * * * //

dimensions      [1 -3 0 0 0 0 0];


internalField   nonuniform List<scalar> 
18000
(
0.00434185
0.00434051
0.00434019
0.00434007
0.00434005
0.00434007
0.00434007
0.00433999
0.00433973
0.00433921
0.00433834
0.00433709
0.00433544
0.00433338
0.00433095
0.00432816
0.00432507
0.0043217
0.00431809
0.00431429
0.00431036
0.0043063
0.00430218
0.00429803
0.0042939
0.00428981
0.00428579
0.00428185
0.004278
0.00427422
0.00427052
0.00426687
0.00426327
0.00425964
0.004256
0.00425227
0.00424843
0.00424443
0.00424025
0.00423585
0.00423124
0.00422636
0.00422126
0.00421589
0.0042103
0.00420444
0.00419839
0.0041921
0.00418564
0.00417896
0.00417214
0.00416514
0.00415803
0.00415077
0.00414342
0.00413594
0.0041284
0.00412073
0.00411302
0.0041052
0.00409733
0.00408936
0.00408134
0.0040732
0.00406502
0.00405671
0.00404834
0.00403984
0.00403127
0.00402255
0.00401376
0.00400482
0.00399577
0.00398659
0.00397728
0.00396784
0.00395827
0.00394857
0.00393872
0.00392877
0.00391867
0.00390847
0.00389811
0.00388768
0.0038771
0.00386644
0.00385566
0.00384479
0.00383383
0.00382276
0.00381161
0.00380036
0.00378904
0.00377762
0.00376614
0.00375456
0.00374291
0.00373119
0.00371939
0.00370753
0.00369558
0.00368358
0.00367149
0.00365935
0.00364714
0.00363487
0.00362254
0.00361013
0.00359768
0.00358517
0.0035726
0.00355998
0.0035473
0.00353458
0.0035218
0.003509
0.00349613
0.00348325
0.00347031
0.00345734
0.00344433
0.00343131
0.00341823
0.00340516
0.00339203
0.00337892
0.00336574
0.00335258
0.0033394
0.00332623
0.00331304
0.00329988
0.00328668
0.00327352
0.00326031
0.00324715
0.00323396
0.0032208
0.00320765
0.00319451
0.00318139
0.00316835
0.00315527
0.0031423
0.0031293
0.00311643
0.00310365
0.00309101
0.0030787
0.00306645
0.0043419
0.00434057
0.00434025
0.00434011
0.00434007
0.00434006
0.00434003
0.00433989
0.00433957
0.00433899
0.00433808
0.00433681
0.00433515
0.00433311
0.00433071
0.00432796
0.00432491
0.00432159
0.00431803
0.00431428
0.00431039
0.00430639
0.00430233
0.00429824
0.00429417
0.00429012
0.00428614
0.00428222
0.00427837
0.0042746
0.00427089
0.00426722
0.00426358
0.00425992
0.00425622
0.00425244
0.00424855
0.0042445
0.00424027
0.00423584
0.00423119
0.00422629
0.00422117
0.00421578
0.00421018
0.00420432
0.00419827
0.00419199
0.00418553
0.00417887
0.00417206
0.00416508
0.00415799
0.00415074
0.00414341
0.00413594
0.00412841
0.00412076
0.00411307
0.00410525
0.0040974
0.00408942
0.00408141
0.00407327
0.00406508
0.00405677
0.00404839
0.00403988
0.00403131
0.00402259
0.00401378
0.00400483
0.00399578
0.00398659
0.00397728
0.00396783
0.00395825
0.00394855
0.0039387
0.00392875
0.00391864
0.00390844
0.00389809
0.00388765
0.00387708
0.00386642
0.00385564
0.00384477
0.00383381
0.00382274
0.00381159
0.00380034
0.00378902
0.0037776
0.00376612
0.00375454
0.0037429
0.00373117
0.00371937
0.00370751
0.00369556
0.00368356
0.00367147
0.00365933
0.00364711
0.00363483
0.0036225
0.00361009
0.00359764
0.00358512
0.00357255
0.00355993
0.00354724
0.00353452
0.00352173
0.00350893
0.00349606
0.00348317
0.00347023
0.00345726
0.00344424
0.00343121
0.00341812
0.00340504
0.0033919
0.00337877
0.00336558
0.00335239
0.00333917
0.00332595
0.0033127
0.00329946
0.00328617
0.00327291
0.00325962
0.00324641
0.0032332
0.00322004
0.00320692
0.00319382
0.00318075
0.00316776
0.00315473
0.00314184
0.00312891
0.00311606
0.00310332
0.00309069
0.00307847
0.00306629
0.00434196
0.00434068
0.00434036
0.00434019
0.00434012
0.00434006
0.00433996
0.00433975
0.00433934
0.00433868
0.00433772
0.00433643
0.00433479
0.00433278
0.00433043
0.00432774
0.00432476
0.0043215
0.00431801
0.00431433
0.00431051
0.00430658
0.0043026
0.00429858
0.00429457
0.00429058
0.00428664
0.00428274
0.00427891
0.00427514
0.00427141
0.00426771
0.00426403
0.0042603
0.00425654
0.00425268
0.00424872
0.0042446
0.00424031
0.00423583
0.00423113
0.0042262
0.00422105
0.00421564
0.00421003
0.00420417
0.00419813
0.00419185
0.00418541
0.00417876
0.00417198
0.00416502
0.00415794
0.00415072
0.00414341
0.00413596
0.00412846
0.00412083
0.00411315
0.00410534
0.00409749
0.00408953
0.00408151
0.00407337
0.00406518
0.00405686
0.00404848
0.00403995
0.00403137
0.00402263
0.00401382
0.00400486
0.0039958
0.00398659
0.00397727
0.00396782
0.00395823
0.00394853
0.00393868
0.00392872
0.00391861
0.00390841
0.00389805
0.00388762
0.00387704
0.00386639
0.0038556
0.00384474
0.00383377
0.00382271
0.00381156
0.00380031
0.00378899
0.00377756
0.00376608
0.0037545
0.00374286
0.00373113
0.00371933
0.00370746
0.00369551
0.00368351
0.00367141
0.00365927
0.00364704
0.00363476
0.00362242
0.00361001
0.00359756
0.00358503
0.00357246
0.00355983
0.00354714
0.00353442
0.00352163
0.00350882
0.00349595
0.00348305
0.00347011
0.00345714
0.00344412
0.00343109
0.00341801
0.00340494
0.0033918
0.00337869
0.00336551
0.00335235
0.00333916
0.00332597
0.00331277
0.00329959
0.00328636
0.00327319
0.00325996
0.00324679
0.0032336
0.00322043
0.00320729
0.00319414
0.00318103
0.00316799
0.00315488
0.00314191
0.00312892
0.00311603
0.00310326
0.0030906
0.00307839
0.00306619
0.00434204
0.00434081
0.00434049
0.0043403
0.00434017
0.00434004
0.00433986
0.00433953
0.00433902
0.00433828
0.00433726
0.00433594
0.0043343
0.00433233
0.00433004
0.00432744
0.00432455
0.00432138
0.00431799
0.00431441
0.00431069
0.00430686
0.00430298
0.00429905
0.00429513
0.0042912
0.00428731
0.00428345
0.00427964
0.00427586
0.00427211
0.00426836
0.00426461
0.00426081
0.00425696
0.004253
0.00424894
0.00424473
0.00424036
0.0042358
0.00423105
0.00422607
0.00422088
0.00421545
0.00420983
0.00420397
0.00419793
0.00419166
0.00418524
0.00417862
0.00417186
0.00416493
0.00415788
0.00415069
0.00414341
0.004136
0.00412852
0.00412091
0.00411325
0.00410546
0.00409763
0.00408966
0.00408165
0.00407351
0.00406531
0.00405698
0.00404858
0.00404005
0.00403145
0.00402269
0.00401387
0.00400488
0.00399581
0.00398659
0.00397726
0.00396779
0.0039582
0.00394849
0.00393863
0.00392867
0.00391856
0.00390836
0.003898
0.00388757
0.00387699
0.00386634
0.00385555
0.00384469
0.00383372
0.00382266
0.00381151
0.00380026
0.00378894
0.00377751
0.00376604
0.00375444
0.00374281
0.00373107
0.00371927
0.0037074
0.00369544
0.00368344
0.00367133
0.00365919
0.00364695
0.00363467
0.00362232
0.0036099
0.00359744
0.00358491
0.00357234
0.0035597
0.00354701
0.00353428
0.00352148
0.00350867
0.00349579
0.00348289
0.00346995
0.00345697
0.00344395
0.00343091
0.00341783
0.00340476
0.00339162
0.00337852
0.00336534
0.00335219
0.00333899
0.00332581
0.00331261
0.00329942
0.00328619
0.00327303
0.0032598
0.00324665
0.00323345
0.00322028
0.00320714
0.00319399
0.00318088
0.00316783
0.0031547
0.00314171
0.00312866
0.0031157
0.0031029
0.00309022
0.0030781
0.00306592
0.00434214
0.00434096
0.00434065
0.00434042
0.00434023
0.00434001
0.00433972
0.00433928
0.00433866
0.00433782
0.00433673
0.00433538
0.00433375
0.00433183
0.0043296
0.00432708
0.00432429
0.00432123
0.00431796
0.0043145
0.0043109
0.00430719
0.00430342
0.0042996
0.00429577
0.00429193
0.0042881
0.00428428
0.00428049
0.0042767
0.00427292
0.00426911
0.00426529
0.00426139
0.00425744
0.00425338
0.00424921
0.0042449
0.00424043
0.00423579
0.00423096
0.00422592
0.0042207
0.00421524
0.0042096
0.00420373
0.0041977
0.00419145
0.00418505
0.00417845
0.00417172
0.00416483
0.00415782
0.00415067
0.00414342
0.00413604
0.00412859
0.00412102
0.00411337
0.00410561
0.00409778
0.00408983
0.00408182
0.00407367
0.00406546
0.00405712
0.00404871
0.00404016
0.00403154
0.00402277
0.00401392
0.00400492
0.00399583
0.00398659
0.00397725
0.00396777
0.00395817
0.00394844
0.00393858
0.00392861
0.0039185
0.00390829
0.00389794
0.00388751
0.00387693
0.00386628
0.00385549
0.00384464
0.00383366
0.0038226
0.00381145
0.0038002
0.00378889
0.00377745
0.00376598
0.00375438
0.00374274
0.003731
0.0037192
0.00370732
0.00369536
0.00368334
0.00367123
0.00365909
0.00364684
0.00363455
0.00362219
0.00360977
0.00359731
0.00358476
0.00357219
0.00355953
0.00354684
0.0035341
0.0035213
0.00350848
0.00349559
0.0034827
0.00346974
0.00345675
0.00344374
0.00343069
0.00341761
0.00340453
0.00339139
0.00337828
0.00336509
0.00335195
0.00333875
0.00332556
0.00331237
0.00329917
0.00328595
0.00327279
0.00325955
0.0032464
0.00323319
0.00322002
0.00320688
0.00319371
0.00318061
0.00316755
0.00315441
0.00314146
0.00312845
0.00311553
0.00310274
0.00309
0.00307793
0.00306574
0.00434225
0.00434114
0.00434083
0.00434055
0.0043403
0.00433998
0.00433957
0.004339
0.00433827
0.00433733
0.00433618
0.00433479
0.00433317
0.00433128
0.00432912
0.00432669
0.00432401
0.00432107
0.00431793
0.00431461
0.00431115
0.00430757
0.00430392
0.00430021
0.00429648
0.00429272
0.00428896
0.00428519
0.00428141
0.00427761
0.00427379
0.00426993
0.00426602
0.00426203
0.00425798
0.00425379
0.00424951
0.00424508
0.00424052
0.00423578
0.00423087
0.00422578
0.0042205
0.00421502
0.00420936
0.00420348
0.00419746
0.00419122
0.00418484
0.00417828
0.00417158
0.00416472
0.00415776
0.00415064
0.00414344
0.0041361
0.00412868
0.00412113
0.00411351
0.00410577
0.00409796
0.00409001
0.004082
0.00407385
0.00406564
0.00405727
0.00404886
0.00404028
0.00403164
0.00402285
0.00401398
0.00400496
0.00399585
0.00398659
0.00397724
0.00396773
0.00395813
0.00394838
0.00393852
0.00392854
0.00391843
0.00390822
0.00389786
0.00388743
0.00387685
0.00386621
0.00385542
0.00384457
0.00383359
0.00382254
0.00381138
0.00380014
0.00378882
0.00377739
0.00376591
0.0037543
0.00374267
0.00373091
0.00371912
0.00370722
0.00369526
0.00368324
0.00367112
0.00365897
0.00364671
0.00363443
0.00362205
0.00360962
0.00359715
0.00358459
0.00357201
0.00355935
0.00354665
0.0035339
0.00352109
0.00350827
0.00349537
0.00348247
0.00346951
0.00345651
0.0034435
0.00343043
0.00341736
0.00340427
0.00339112
0.00337802
0.00336482
0.00335167
0.00333847
0.00332528
0.00331209
0.00329888
0.00328566
0.00327249
0.00325925
0.0032461
0.00323288
0.00321971
0.00320658
0.00319339
0.00318031
0.00316723
0.00315409
0.00314116
0.00312814
0.00311522
0.00310242
0.00308962
0.00307762
0.00306545
0.00434237
0.00434133
0.00434102
0.00434069
0.00434037
0.00433995
0.00433942
0.00433872
0.00433788
0.00433684
0.00433562
0.0043342
0.00433258
0.00433073
0.00432863
0.00432629
0.00432372
0.00432091
0.00431791
0.00431473
0.00431141
0.00430797
0.00430445
0.00430086
0.00429723
0.00429356
0.00428986
0.00428613
0.00428237
0.00427856
0.0042747
0.00427077
0.00426679
0.00426269
0.00425853
0.00425423
0.00424983
0.00424529
0.00424061
0.00423579
0.00423079
0.00422564
0.00422031
0.00421479
0.00420912
0.00420323
0.00419721
0.00419099
0.00418464
0.0041781
0.00417144
0.00416462
0.00415769
0.00415062
0.00414346
0.00413616
0.00412877
0.00412125
0.00411366
0.00410594
0.00409814
0.0040902
0.00408219
0.00407403
0.00406581
0.00405744
0.00404901
0.00404041
0.00403176
0.00402293
0.00401405
0.004005
0.00399588
0.00398659
0.00397723
0.0039677
0.00395809
0.00394832
0.00393846
0.00392847
0.00391835
0.00390814
0.00389778
0.00388735
0.00387677
0.00386613
0.00385534
0.0038445
0.00383351
0.00382247
0.0038113
0.00380007
0.00378874
0.00377731
0.00376584
0.00375422
0.00374259
0.00373082
0.00371903
0.00370712
0.00369516
0.00368313
0.003671
0.00365885
0.00364657
0.00363428
0.0036219
0.00360946
0.00359698
0.00358441
0.00357183
0.00355914
0.00354645
0.00353369
0.00352087
0.00350805
0.00349513
0.00348223
0.00346925
0.00345625
0.00344324
0.00343015
0.00341709
0.00340398
0.00339083
0.00337773
0.00336451
0.00335138
0.00333817
0.00332497
0.00331178
0.00329856
0.00328535
0.00327217
0.00325891
0.00324578
0.00323254
0.00321938
0.00320625
0.00319304
0.00317998
0.00316688
0.00315373
0.00314081
0.00312777
0.00311485
0.00310208
0.00308925
0.00307738
0.00306524
0.0043425
0.00434152
0.00434122
0.00434084
0.00434046
0.00433993
0.00433928
0.00433846
0.0043375
0.00433637
0.00433508
0.00433363
0.004332
0.00433018
0.00432814
0.00432589
0.00432343
0.00432075
0.00431789
0.00431486
0.00431168
0.00430839
0.004305
0.00430152
0.00429799
0.0042944
0.00429077
0.00428708
0.00428333
0.00427951
0.00427561
0.00427163
0.00426756
0.00426337
0.0042591
0.00425468
0.00425017
0.00424551
0.00424072
0.0042358
0.00423073
0.0042255
0.00422012
0.00421457
0.00420888
0.00420299
0.00419697
0.00419076
0.00418444
0.00417793
0.00417131
0.00416453
0.00415764
0.00415061
0.00414348
0.00413622
0.00412887
0.00412138
0.00411381
0.00410611
0.00409832
0.00409039
0.00408238
0.00407422
0.004066
0.00405761
0.00404916
0.00404054
0.00403187
0.00402302
0.00401412
0.00400504
0.0039959
0.00398659
0.00397721
0.00396766
0.00395804
0.00394826
0.00393839
0.00392839
0.00391827
0.00390805
0.0038977
0.00388727
0.00387669
0.00386606
0.00385525
0.00384442
0.00383343
0.0038224
0.00381122
0.0038
0.00378866
0.00377724
0.00376576
0.00375414
0.00374251
0.00373072
0.00371894
0.00370701
0.00369505
0.00368301
0.00367087
0.00365871
0.00364642
0.00363413
0.00362173
0.00360929
0.0035968
0.00358421
0.00357163
0.00355893
0.00354623
0.00353346
0.00352063
0.0035078
0.00349487
0.00348197
0.00346898
0.00345597
0.00344295
0.00342986
0.0034168
0.00340368
0.00339053
0.00337742
0.00336419
0.00335106
0.00333784
0.00332464
0.00331146
0.00329821
0.00328501
0.00327183
0.00325856
0.00324543
0.00323217
0.00321903
0.00320589
0.00319267
0.00317962
0.0031665
0.00315334
0.00314045
0.00312737
0.00311447
0.00310171
0.00308883
0.00307708
0.00306497
0.00434262
0.00434172
0.00434141
0.004341
0.00434055
0.00433992
0.00433916
0.00433821
0.00433715
0.00433593
0.00433458
0.00433309
0.00433145
0.00432965
0.00432767
0.00432551
0.00432315
0.0043206
0.00431789
0.004315
0.00431196
0.00430881
0.00430554
0.00430218
0.00429875
0.00429524
0.00429167
0.00428801
0.00428427
0.00428044
0.0042765
0.00427246
0.00426831
0.00426403
0.00425966
0.00425512
0.0042505
0.00424573
0.00424085
0.00423583
0.00423067
0.00422539
0.00421995
0.00421437
0.00420865
0.00420275
0.00419675
0.00419055
0.00418425
0.00417777
0.00417118
0.00416444
0.00415759
0.00415061
0.00414352
0.00413629
0.00412897
0.00412152
0.00411397
0.00410628
0.0040985
0.00409058
0.00408258
0.00407441
0.00406618
0.00405778
0.00404931
0.00404067
0.00403198
0.00402311
0.00401419
0.00400508
0.00399593
0.00398659
0.0039772
0.00396763
0.003958
0.0039482
0.00393833
0.00392831
0.0039182
0.00390797
0.00389762
0.00388719
0.0038766
0.00386597
0.00385517
0.00384435
0.00383334
0.00382233
0.00381114
0.00379992
0.00378858
0.00377715
0.00376567
0.00375405
0.00374242
0.00373062
0.00371884
0.00370689
0.00369494
0.00368288
0.00367073
0.00365857
0.00364626
0.00363398
0.00362155
0.00360911
0.0035966
0.00358401
0.00357143
0.0035587
0.00354601
0.00353322
0.00352039
0.00350755
0.00349461
0.00348171
0.0034687
0.00345569
0.00344267
0.00342955
0.0034165
0.00340336
0.00339021
0.0033771
0.00336386
0.00335074
0.0033375
0.0033243
0.00331112
0.00329786
0.00328467
0.00327147
0.00325819
0.00324508
0.00323179
0.00321866
0.00320552
0.00319228
0.00317926
0.00316611
0.00315294
0.00314007
0.00312695
0.00311407
0.00310133
0.00308837
0.00307677
0.00306472
0.00434274
0.00434191
0.0043416
0.00434116
0.00434064
0.00433992
0.00433905
0.00433799
0.00433683
0.00433553
0.00433412
0.00433259
0.00433095
0.00432917
0.00432723
0.00432515
0.0043229
0.00432047
0.00431789
0.00431514
0.00431224
0.00430922
0.00430608
0.00430283
0.00429949
0.00429605
0.00429254
0.00428891
0.00428519
0.00428134
0.00427737
0.00427327
0.00426905
0.00426467
0.0042602
0.00425556
0.00425084
0.00424596
0.00424098
0.00423587
0.00423063
0.00422529
0.0042198
0.00421418
0.00420844
0.00420254
0.00419653
0.00419035
0.00418407
0.00417762
0.00417107
0.00416436
0.00415756
0.00415061
0.00414355
0.00413636
0.00412907
0.00412165
0.00411412
0.00410645
0.00409868
0.00409077
0.00408276
0.0040746
0.00406635
0.00405794
0.00404946
0.0040408
0.00403209
0.00402319
0.00401425
0.00400512
0.00399595
0.00398659
0.00397719
0.00396759
0.00395796
0.00394814
0.00393827
0.00392824
0.00391812
0.00390788
0.00389753
0.0038871
0.00387652
0.00386589
0.00385509
0.00384427
0.00383326
0.00382225
0.00381106
0.00379985
0.00378849
0.00377707
0.00376559
0.00375395
0.00374233
0.00373051
0.00371874
0.00370677
0.00369482
0.00368274
0.0036706
0.00365842
0.0036461
0.00363382
0.00362137
0.00360893
0.0035964
0.0035838
0.00357122
0.00355847
0.00354579
0.00353297
0.00352014
0.0035073
0.00349433
0.00348144
0.00346841
0.0034554
0.00344237
0.00342924
0.0034162
0.00340304
0.00338989
0.00337678
0.00336352
0.00335041
0.00333715
0.00332395
0.00331077
0.00329749
0.00328431
0.0032711
0.00325782
0.00324471
0.0032314
0.00321829
0.00320514
0.00319187
0.00317889
0.0031657
0.00315253
0.00313969
0.00312652
0.00311365
0.00310094
0.00308789
0.00307646
0.00306446
0.00434284
0.00434209
0.0043418
0.00434132
0.00434074
0.00433993
0.00433896
0.0043378
0.00433655
0.00433518
0.00433372
0.00433215
0.00433049
0.00432872
0.00432683
0.00432482
0.00432266
0.00432035
0.0043179
0.00431528
0.00431252
0.00430963
0.0043066
0.00430346
0.00430021
0.00429684
0.00429338
0.00428977
0.00428606
0.0042822
0.00427819
0.00427404
0.00426974
0.00426529
0.00426073
0.00425599
0.00425117
0.00424619
0.00424111
0.00423593
0.00423061
0.00422521
0.00421966
0.00421401
0.00420825
0.00420234
0.00419634
0.00419016
0.00418391
0.00417748
0.00417097
0.00416429
0.00415753
0.00415061
0.00414359
0.00413644
0.00412918
0.00412178
0.00411427
0.00410661
0.00409886
0.00409095
0.00408294
0.00407477
0.00406652
0.00405809
0.0040496
0.00404092
0.0040322
0.00402328
0.00401432
0.00400516
0.00399598
0.00398659
0.00397718
0.00396756
0.00395792
0.00394808
0.00393821
0.00392816
0.00391805
0.0039078
0.00389745
0.00388701
0.00387643
0.00386581
0.003855
0.00384419
0.00383317
0.00382218
0.00381097
0.00379977
0.00378841
0.00377699
0.00376549
0.00375386
0.00374224
0.0037304
0.00371864
0.00370665
0.0036947
0.0036826
0.00367045
0.00365827
0.00364593
0.00363365
0.00362118
0.00360875
0.0035962
0.00358359
0.003571
0.00355824
0.00354556
0.00353272
0.00351989
0.00350704
0.00349406
0.00348117
0.00346812
0.00345511
0.00344208
0.00342893
0.0034159
0.00340271
0.00338957
0.00337645
0.00336317
0.00335008
0.0033368
0.0033236
0.00331043
0.00329712
0.00328396
0.00327073
0.00325744
0.00324434
0.003231
0.00321791
0.00320475
0.00319146
0.00317851
0.00316529
0.00315212
0.0031393
0.00312608
0.00311324
0.00310055
0.00308739
0.00307615
0.0030642
0.00434292
0.00434227
0.00434198
0.00434149
0.00434084
0.00433995
0.00433889
0.00433763
0.00433631
0.00433487
0.00433336
0.00433175
0.00433008
0.00432833
0.00432647
0.00432453
0.00432245
0.00432024
0.00431791
0.00431541
0.00431278
0.00431001
0.00430709
0.00430406
0.0043009
0.00429759
0.00429418
0.00429059
0.00428688
0.00428301
0.00427896
0.00427477
0.0042704
0.00426587
0.00426123
0.00425639
0.00425149
0.00424642
0.00424126
0.00423599
0.0042306
0.00422514
0.00421955
0.00421387
0.00420808
0.00420216
0.00419616
0.00419
0.00418377
0.00417736
0.00417088
0.00416424
0.00415751
0.00415063
0.00414364
0.00413652
0.00412928
0.0041219
0.00411441
0.00410677
0.00409902
0.00409112
0.00408311
0.00407494
0.00406668
0.00405824
0.00404973
0.00404104
0.0040323
0.00402336
0.00401438
0.0040052
0.003996
0.00398659
0.00397717
0.00396753
0.00395788
0.00394803
0.00393815
0.00392809
0.00391798
0.00390772
0.00389738
0.00388693
0.00387635
0.00386573
0.00385492
0.00384411
0.00383309
0.0038221
0.00381088
0.0037997
0.00378832
0.00377691
0.0037654
0.00375376
0.00374214
0.00373029
0.00371853
0.00370652
0.00369458
0.00368246
0.00367031
0.00365812
0.00364577
0.00363349
0.00362099
0.00360857
0.00359599
0.00358338
0.00357079
0.003558
0.00354534
0.00353247
0.00351964
0.00350678
0.00349378
0.0034809
0.00346782
0.00345482
0.00344178
0.00342861
0.0034156
0.00340238
0.00338926
0.00337612
0.00336283
0.00334976
0.00333644
0.00332326
0.00331008
0.00329674
0.00328361
0.00327035
0.00325706
0.00324398
0.00323059
0.00321754
0.00320436
0.00319104
0.00317814
0.00316487
0.0031517
0.00313892
0.00312563
0.00311282
0.00310016
0.00308688
0.00307585
0.00306395
0.004343
0.00434244
0.00434217
0.00434166
0.00434094
0.00433997
0.00433883
0.0043375
0.00433611
0.00433461
0.00433305
0.00433141
0.00432973
0.00432798
0.00432615
0.00432427
0.00432227
0.00432015
0.00431794
0.00431555
0.00431303
0.00431038
0.00430757
0.00430463
0.00430155
0.0042983
0.00429493
0.00429136
0.00428766
0.00428377
0.00427968
0.00427545
0.00427102
0.00426642
0.00426171
0.00425678
0.0042518
0.00424664
0.0042414
0.00423606
0.00423061
0.0042251
0.00421945
0.00421375
0.00420793
0.00420201
0.00419601
0.00418985
0.00418364
0.00417726
0.00417081
0.00416419
0.00415749
0.00415064
0.00414369
0.00413659
0.00412938
0.00412202
0.00411455
0.00410692
0.00409918
0.00409128
0.00408327
0.0040751
0.00406683
0.00405838
0.00404986
0.00404116
0.00403239
0.00402344
0.00401444
0.00400524
0.00399603
0.0039866
0.00397716
0.00396751
0.00395785
0.00394798
0.0039381
0.00392802
0.00391792
0.00390765
0.00389731
0.00388685
0.00387628
0.00386565
0.00385484
0.00384404
0.00383301
0.00382203
0.00381079
0.00379962
0.00378822
0.00377683
0.0037653
0.00375367
0.00374204
0.00373018
0.00371843
0.00370639
0.00369446
0.00368231
0.00367017
0.00365796
0.00364559
0.00363332
0.00362079
0.00360839
0.00359578
0.00358317
0.00357057
0.00355777
0.00354512
0.00353221
0.0035194
0.00350652
0.00349351
0.00348064
0.00346753
0.00345454
0.00344148
0.00342831
0.00341531
0.00340205
0.00338895
0.00337579
0.00336249
0.00334943
0.00333608
0.00332292
0.00330973
0.00329637
0.00328327
0.00326998
0.00325669
0.00324361
0.00323019
0.00321718
0.00320397
0.00319063
0.00317778
0.00316445
0.00315129
0.00313855
0.00312518
0.00311242
0.00309977
0.00308635
0.00307556
0.00306371
0.00434307
0.00434261
0.00434235
0.00434182
0.00434103
0.00434
0.00433879
0.00433739
0.00433595
0.00433439
0.00433279
0.00433111
0.00432942
0.00432767
0.00432587
0.00432404
0.00432211
0.00432007
0.00431797
0.00431568
0.00431327
0.00431073
0.00430801
0.00430517
0.00430215
0.00429896
0.00429564
0.00429208
0.00428837
0.00428448
0.00428035
0.00427608
0.0042716
0.00426693
0.00426215
0.00425715
0.00425209
0.00424685
0.00424155
0.00423614
0.00423062
0.00422507
0.00421938
0.00421365
0.00420781
0.00420187
0.00419587
0.00418973
0.00418353
0.00417717
0.00417074
0.00416416
0.00415749
0.00415066
0.00414374
0.00413667
0.00412948
0.00412214
0.00411468
0.00410707
0.00409933
0.00409143
0.00408342
0.00407525
0.00406697
0.00405852
0.00404998
0.00404126
0.00403248
0.00402351
0.0040145
0.00400528
0.00399605
0.0039866
0.00397716
0.00396748
0.00395782
0.00394794
0.00393805
0.00392796
0.00391786
0.00390758
0.00389725
0.00388678
0.00387621
0.00386557
0.00385477
0.00384397
0.00383293
0.00382196
0.00381071
0.00379955
0.00378813
0.00377675
0.00376521
0.00375357
0.00374194
0.00373007
0.00371832
0.00370626
0.00369434
0.00368216
0.00367003
0.0036578
0.00364543
0.00363315
0.0036206
0.00360821
0.00359558
0.00358297
0.00357036
0.00355754
0.0035449
0.00353196
0.00351916
0.00350626
0.00349325
0.00348038
0.00346724
0.00345427
0.00344118
0.003428
0.00341502
0.00340173
0.00338864
0.00337546
0.00336216
0.00334912
0.00333573
0.00332258
0.00330939
0.003296
0.00328294
0.00326961
0.00325632
0.00324325
0.00322978
0.00321683
0.00320358
0.00319021
0.00317742
0.00316404
0.00315088
0.00313818
0.00312472
0.00311202
0.00309939
0.00308582
0.00307528
0.00306348
0.00434314
0.00434278
0.00434252
0.00434198
0.00434111
0.00434003
0.00433877
0.00433731
0.00433582
0.00433422
0.00433256
0.00433086
0.00432916
0.00432741
0.00432564
0.00432385
0.00432197
0.00432001
0.004318
0.0043158
0.0043135
0.00431107
0.00430843
0.00430567
0.00430272
0.00429958
0.0042963
0.00429274
0.00428904
0.00428513
0.00428097
0.00427667
0.00427213
0.00426741
0.00426257
0.0042575
0.00425238
0.00424706
0.00424169
0.00423623
0.00423065
0.00422506
0.00421932
0.00421357
0.0042077
0.00420176
0.00419575
0.00418962
0.00418344
0.00417709
0.0041707
0.00416413
0.00415749
0.00415069
0.00414379
0.00413675
0.00412957
0.00412225
0.0041148
0.0041072
0.00409947
0.00409158
0.00408356
0.00407538
0.0040671
0.00405864
0.00405009
0.00404136
0.00403257
0.00402358
0.00401455
0.00400532
0.00399608
0.00398661
0.00397715
0.00396746
0.0039578
0.00394789
0.00393801
0.00392791
0.00391781
0.00390751
0.00389719
0.00388671
0.00387615
0.0038655
0.0038547
0.00384389
0.00383285
0.00382189
0.00381062
0.00379948
0.00378804
0.00377667
0.00376511
0.00375349
0.00374184
0.00372996
0.00371821
0.00370613
0.00369423
0.00368202
0.00366989
0.00365765
0.00364527
0.00363299
0.00362042
0.00360804
0.00359537
0.00358278
0.00357015
0.00355732
0.00354469
0.00353171
0.00351893
0.003506
0.00349299
0.00348013
0.00346696
0.00345401
0.0034409
0.00342771
0.00341474
0.0034014
0.00338835
0.00337514
0.00336183
0.00334881
0.00333538
0.00332226
0.00330905
0.00329564
0.00328261
0.00326924
0.00325596
0.0032429
0.00322938
0.00321649
0.0032032
0.00318981
0.00317708
0.00316362
0.00315047
0.00313783
0.00312427
0.00311164
0.00309902
0.00308528
0.00307501
0.00306328
0.00434318
0.00434294
0.00434269
0.00434215
0.0043412
0.00434006
0.00433876
0.00433725
0.00433572
0.00433408
0.00433238
0.00433065
0.00432894
0.00432719
0.00432543
0.00432369
0.00432185
0.00431997
0.00431804
0.00431592
0.00431371
0.00431138
0.00430882
0.00430614
0.00430325
0.00430016
0.00429691
0.00429336
0.00428966
0.00428573
0.00428154
0.00427721
0.00427262
0.00426785
0.00426296
0.00425782
0.00425264
0.00424726
0.00424184
0.00423632
0.00423069
0.00422506
0.00421928
0.0042135
0.00420761
0.00420167
0.00419566
0.00418953
0.00418336
0.00417703
0.00417066
0.00416411
0.0041575
0.00415072
0.00414385
0.00413682
0.00412966
0.00412236
0.00411492
0.00410733
0.0040996
0.00409171
0.00408369
0.00407551
0.00406722
0.00405875
0.00405019
0.00404145
0.00403265
0.00402364
0.0040146
0.00400535
0.0039961
0.00398661
0.00397715
0.00396744
0.00395777
0.00394785
0.00393797
0.00392785
0.00391775
0.00390745
0.00389712
0.00388664
0.00387608
0.00386543
0.00385463
0.00384383
0.00383278
0.00382182
0.00381054
0.00379941
0.00378795
0.00377659
0.00376502
0.0037534
0.00374174
0.00372986
0.00371811
0.003706
0.00369412
0.00368188
0.00366976
0.0036575
0.00364511
0.00363284
0.00362023
0.00360787
0.00359517
0.00358259
0.00356994
0.0035571
0.00354448
0.00353147
0.00351871
0.00350575
0.00349274
0.00347989
0.00346668
0.00345376
0.00344061
0.00342743
0.00341447
0.00340109
0.00338807
0.00337483
0.00336152
0.00334852
0.00333503
0.00332195
0.00330872
0.00329529
0.0032823
0.00326887
0.00325562
0.00324256
0.00322899
0.00321616
0.00320282
0.0031894
0.00317675
0.00316322
0.00315008
0.00313748
0.00312382
0.00311127
0.00309866
0.00308475
0.00307475
0.00306311
0.00434322
0.00434309
0.00434286
0.0043423
0.00434128
0.0043401
0.00433877
0.00433721
0.00433564
0.00433396
0.00433224
0.00433048
0.00432876
0.00432701
0.00432527
0.00432355
0.00432176
0.00431993
0.00431808
0.00431603
0.00431392
0.00431167
0.00430918
0.00430658
0.00430374
0.00430069
0.00429747
0.00429393
0.00429023
0.00428628
0.00428207
0.00427771
0.00427307
0.00426826
0.00426331
0.00425812
0.0042529
0.00424746
0.00424198
0.00423641
0.00423074
0.00422507
0.00421926
0.00421346
0.00420755
0.00420159
0.00419558
0.00418945
0.0041833
0.00417698
0.00417063
0.0041641
0.00415751
0.00415076
0.0041439
0.00413689
0.00412975
0.00412247
0.00411503
0.00410745
0.00409972
0.00409184
0.00408382
0.00407564
0.00406733
0.00405886
0.00405029
0.00404154
0.00403272
0.0040237
0.00401465
0.00400539
0.00399612
0.00398662
0.00397715
0.00396743
0.00395775
0.00394782
0.00393793
0.0039278
0.0039177
0.00390738
0.00389706
0.00388657
0.00387602
0.00386536
0.00385456
0.00384376
0.0038327
0.00382175
0.00381046
0.00379934
0.00378786
0.00377652
0.00376492
0.00375331
0.00374164
0.00372976
0.00371801
0.00370588
0.00369401
0.00368173
0.00366964
0.00365734
0.00364496
0.00363268
0.00362005
0.00360771
0.00359496
0.0035824
0.00356974
0.00355689
0.00354428
0.00353123
0.0035185
0.00350551
0.00349249
0.00347965
0.00346641
0.00345351
0.00344033
0.00342715
0.00341421
0.00340078
0.0033878
0.00337452
0.00336121
0.00334823
0.00333469
0.00332166
0.0033084
0.00329495
0.003282
0.00326852
0.00325529
0.00324222
0.0032286
0.00321585
0.00320245
0.00318901
0.00317643
0.00316282
0.00314969
0.00313716
0.00312338
0.00311092
0.00309832
0.00308421
0.0030745
0.00306297
0.00434326
0.00434322
0.00434302
0.00434246
0.00434136
0.00434017
0.0043388
0.0043372
0.00433559
0.00433388
0.00433212
0.00433035
0.00432862
0.00432686
0.00432513
0.00432345
0.00432169
0.00431991
0.00431813
0.00431615
0.00431411
0.00431194
0.00430952
0.00430698
0.00430419
0.00430117
0.00429799
0.00429444
0.00429075
0.00428679
0.00428255
0.00427817
0.00427349
0.00426864
0.00426365
0.0042584
0.00425314
0.00424764
0.00424212
0.0042365
0.0042308
0.00422509
0.00421925
0.00421343
0.00420749
0.00420153
0.00419551
0.00418939
0.00418325
0.00417694
0.00417061
0.0041641
0.00415753
0.0041508
0.00414396
0.00413697
0.00412984
0.00412256
0.00411514
0.00410756
0.00409984
0.00409196
0.00408393
0.00407575
0.00406744
0.00405896
0.00405038
0.00404162
0.00403279
0.00402376
0.0040147
0.00400542
0.00399614
0.00398663
0.00397715
0.00396741
0.00395773
0.00394778
0.0039379
0.00392776
0.00391766
0.00390732
0.00389701
0.0038865
0.00387596
0.00386529
0.0038545
0.00384369
0.00383263
0.00382169
0.00381038
0.00379927
0.00378777
0.00377644
0.00376482
0.00375323
0.00374154
0.00372966
0.00371791
0.00370575
0.0036939
0.00368159
0.00366951
0.00365719
0.00364481
0.00363253
0.00361988
0.00360755
0.00359477
0.00358223
0.00356954
0.00355669
0.00354409
0.003531
0.00351829
0.00350527
0.00349226
0.00347942
0.00346615
0.00345328
0.00344006
0.00342689
0.00341395
0.00340048
0.00338755
0.00337422