/*--------------------------------*- C++ -*----------------------------------*\
| =========                 |                                                 |
| \\      /  F ield         | OpenFOAM: The Open Source CFD Toolbox           |
|  \\    /   O peration     | Version:  v2012                                 |
|   \\  /    A nd           | Website:  www.openfoam.com                      |
|    \\/     M anipulation  |                                                 |
\*---------------------------------------------------------------------------*/
FoamFile
{
    version     2.0;
    format      ascii;
    class       volScalarField;
    location    "0.08";
    object      T;
}
// * * * * * * * * * * * * * * * * * * * * * * * * * * * * * * * * * * * * * //

dimensions      [0 0 0 1 0 0 0];


internalField   nonuniform List<scalar> 
18000
(
263.311
263.284
263.278
263.275
263.275
263.275
263.275
263.274
263.268
263.258
263.24
263.215
263.181
263.14
263.09
263.034
262.971
262.903
262.83
262.753
262.673
262.59
262.506
262.422
262.338
262.255
262.173
262.092
262.014
261.937
261.861
261.787
261.713
261.639
261.564
261.488
261.409
261.327
261.241
261.151
261.056
260.955
260.85
260.74
260.624
260.503
260.378
260.248
260.114
259.976
259.834
259.689
259.541
259.39
259.237
259.081
258.923
258.763
258.601
258.437
258.272
258.104
257.935
257.764
257.591
257.415
257.238
257.058
256.876
256.691
256.504
256.313
256.12
255.923
255.724
255.522
255.316
255.107
254.895
254.68
254.461
254.24
254.016
253.789
253.558
253.326
253.09
252.852
252.611
252.368
252.123
251.874
251.624
251.371
251.116
250.858
250.598
250.336
250.072
249.806
249.537
249.267
248.994
248.719
248.442
248.163
247.882
247.599
247.314
247.027
246.738
246.447
246.154
245.859
245.563
245.265
244.965
244.663
244.36
244.055
243.748
243.441
243.131
242.821
242.508
242.195
241.88
241.564
241.247
240.93
240.611
240.292
239.971
239.65
239.327
239.005
238.681
238.357
238.032
237.706
237.38
237.056
236.729
236.404
236.078
235.753
235.431
235.111
234.798
234.486
263.312
263.285
263.279
263.276
263.275
263.275
263.274
263.272
263.265
263.253
263.235
263.209
263.176
263.134
263.086
263.03
262.968
262.901
262.828
262.752
262.673
262.592
262.51
262.426
262.343
262.261
262.18
262.1
262.021
261.944
261.869
261.794
261.719
261.644
261.569
261.491
261.411
261.328
261.242
261.15
261.055
260.954
260.848
260.737
260.622
260.501
260.376
260.246
260.112
259.974
259.833
259.688
259.54
259.389
259.236
259.081
258.923
258.763
258.602
258.438
258.273
258.106
257.937
257.765
257.592
257.417
257.239
257.059
256.877
256.692
256.504
256.313
256.12
255.923
255.724
255.521
255.316
255.107
254.895
254.68
254.461
254.24
254.015
253.788
253.558
253.325
253.09
252.852
252.611
252.368
252.122
251.874
251.623
251.37
251.115
250.858
250.598
250.336
250.072
249.806
249.537
249.267
248.994
248.719
248.442
248.162
247.881
247.598
247.313
247.026
246.737
246.446
246.153
245.858
245.561
245.263
244.963
244.661
244.358
244.053
243.746
243.438
243.129
242.818
242.505
242.192
241.876
241.56
241.242
240.923
240.603
240.282
239.958
239.635
239.31
238.987
238.662
238.338
238.014
237.689
237.364
237.041
236.715
236.392
236.068
235.744
235.422
235.103
234.792
234.482
263.313
263.287
263.281
263.278
263.276
263.275
263.273
263.269
263.26
263.247
263.228
263.202
263.168
263.127
263.08
263.025
262.965
262.899
262.828
262.753
262.676
262.596
262.515
262.433
262.352
262.27
262.19
262.111
262.032
261.955
261.879
261.804
261.728
261.652
261.575
261.496
261.415
261.33
261.242
261.15
261.054
260.952
260.846
260.734
260.619
260.498
260.373
260.243
260.11
259.972
259.831
259.686
259.539
259.389
259.236
259.081
258.924
258.765
258.604
258.44
258.275
258.108
257.939
257.767
257.594
257.418
257.241
257.06
256.878
256.693
256.505
256.314
256.12
255.924
255.724
255.521
255.315
255.106
254.894
254.679
254.46
254.239
254.014
253.788
253.557
253.325
253.089
252.851
252.61
252.367
252.121
251.873
251.623
251.369
251.115
250.857
250.597
250.335
250.071
249.805
249.536
249.265
248.992
248.717
248.44
248.161
247.88
247.596
247.311
247.024
246.735
246.444
246.15
245.856
245.559
245.26
244.96
244.659
244.355
244.05
243.744
243.436
243.126
242.816
242.503
242.19
241.875
241.559
241.242
240.924
240.604
240.285
239.963
239.642
239.319
238.996
238.672
238.347
238.023
237.697
237.371
237.047
236.719
236.394
236.068
235.743
235.421
235.1
234.79
234.479
263.315
263.29
263.284
263.28
263.277
263.275
263.271
263.264
263.254
263.239
263.218
263.192
263.158
263.118
263.072
263.019
262.961
262.896
262.828
262.755
262.679
262.602
262.523
262.443
262.363
262.283
262.204
262.125
262.047
261.97
261.894
261.817
261.74
261.662
261.584
261.503
261.419
261.333
261.243
261.15
261.052
260.949
260.843
260.731
260.615
260.494
260.369
260.239
260.106
259.969
259.828
259.684
259.538
259.388
259.236
259.082
258.925
258.766
258.606
258.443
258.278
258.111
257.942
257.77
257.597
257.421
257.243
257.062
256.88
256.694
256.506
256.314
256.121
255.923
255.724
255.521
255.315
255.105
254.893
254.678
254.459
254.238
254.013
253.787
253.556
253.324
253.088
252.85
252.609
252.366
252.12
251.872
251.622
251.368
251.114
250.856
250.596
250.334
250.07
249.803
249.534
249.264
248.99
248.716
248.438
248.159
247.877
247.594
247.309
247.021
246.732
246.44
246.147
245.852
245.555
245.257
244.956
244.655
244.351
244.046
243.74
243.431
243.122
242.811
242.498
242.186
241.87
241.555
241.238
240.92
240.6
240.281
239.959
239.638
239.315
238.992
238.668
238.344
238.019
237.693
237.368
237.043
236.715
236.389
236.061
235.735
235.412
235.09
234.783
234.472
263.317
263.293
263.287
263.282
263.279
263.274
263.268
263.259
263.247
263.23
263.208
263.18
263.147
263.108
263.063
263.012
262.955
262.893
262.827
262.757
262.684
262.608
262.532
262.454
262.376
262.298
262.22
262.142
262.065
261.987
261.91
261.832
261.754
261.674
261.594
261.51
261.425
261.336
261.245
261.149
261.05
260.946
260.839
260.726
260.61
260.489
260.364
260.235
260.102
259.965
259.826
259.682
259.537
259.388
259.237
259.083
258.927
258.769
258.608
258.446
258.281
258.114
257.945
257.774
257.6
257.424
257.246
257.065
256.882
256.695
256.507
256.315
256.121
255.923
255.723
255.52
255.314
255.104
254.892
254.676
254.458
254.237
254.012
253.785
253.555
253.322
253.086
252.849
252.608
252.365
252.119
251.871
251.62
251.367
251.112
250.854
250.595
250.332
250.068
249.801
249.532
249.262
248.988
248.713
248.435
248.156
247.874
247.591
247.305
247.018
246.728
246.437
246.143
245.848
245.551
245.253
244.952
244.65
244.347
244.041
243.735
243.426
243.116
242.806
242.493
242.18
241.865
241.549
241.232
240.914
240.595
240.275
239.953
239.632
239.309
238.986
238.662
238.337
238.013
237.686
237.361
237.035
236.707
236.383
236.056
235.731
235.407
235.085
234.778
234.468
263.319
263.297
263.291
263.285
263.28
263.273
263.265
263.254
263.239
263.22
263.196
263.168
263.135
263.097
263.053
263.004
262.95
262.89
262.827
262.759
262.689
262.616
262.542
262.467
262.391
262.314
262.237
262.161
262.083
262.006
261.928
261.849
261.769
261.688
261.604
261.519
261.431
261.34
261.246
261.149
261.048
260.943
260.835
260.722
260.605
260.484
260.359
260.23
260.098
259.962
259.823
259.68
259.535
259.387
259.237
259.084
258.929
258.771
258.611
258.449
258.285
258.118
257.949
257.777
257.604
257.427
257.249
257.067
256.884
256.697
256.508
256.316
256.122
255.923
255.723
255.519
255.313
255.103
254.891
254.675
254.456
254.235
254.01
253.784
253.553
253.321
253.085
252.847
252.606
252.363
252.117
251.869
251.619
251.366
251.111
250.852
250.593
250.33
250.066
249.799
249.53
249.259
248.986
248.711
248.433
248.153
247.871
247.587
247.302
247.014
246.724
246.432
246.139
245.844
245.546
245.248
244.947
244.645
244.341
244.036
243.729
243.42
243.11
242.8
242.487
242.174
241.858
241.543
241.225
240.907
240.588
240.268
239.946
239.625
239.301
238.979
238.654
238.33
238.005
237.678
237.353
237.027
236.699
236.375
236.048
235.723
235.399
235.075
234.77
234.46
263.322
263.301
263.294
263.288
263.281
263.273
263.262
263.248
263.231
263.21
263.185
263.156
263.124
263.086
263.044
262.996
262.944
262.887
262.826
262.762
262.694
262.624
262.553
262.48
262.406
262.331
262.256
262.18
262.103
262.025
261.946
261.866
261.785
261.701
261.616
261.528
261.438
261.344
261.248
261.149
261.047
260.94
260.831
260.717
260.6
260.478
260.354
260.225
260.094
259.958
259.82
259.678
259.534
259.387
259.237
259.085
258.931
258.774
258.614
258.453
258.289
258.122
257.953
257.781
257.608
257.431
257.252
257.07
256.886
256.699
256.51
256.317
256.122
255.923
255.723
255.518
255.312
255.102
254.889
254.673
254.455
254.233
254.009
253.782
253.551
253.319
253.083
252.846
252.604
252.362
252.116
251.868
251.617
251.364
251.109
250.851
250.591
250.328
250.064
249.797
249.528
249.257
248.983
248.708
248.429
248.15
247.868
247.584
247.298
247.009
246.72
246.428
246.134
245.839
245.541
245.242
244.941
244.639
244.335
244.029
243.723
243.414
243.104
242.793
242.48
242.167
241.851
241.535
241.218
240.899
240.58
240.26
239.938
239.617
239.293
238.971
238.646
238.321
237.997
237.67
237.345
237.019
236.69
236.366
236.039
235.713
235.391
235.066
234.764
234.455
263.324
263.305
263.298
263.291
263.283
263.272
263.259
263.243
263.223
263.2
263.174
263.145
263.112
263.075
263.034
262.988
262.938
262.884
262.826
262.764
262.7
262.633
262.564
262.493
262.421
262.348
262.274
262.199
262.123
262.045
261.965
261.884
261.801
261.715
261.627
261.537
261.444
261.349
261.251
261.149
261.045
260.938
260.827
260.712
260.595
260.473
260.349
260.22
260.089
259.954
259.817
259.676
259.533
259.387
259.238
259.086
258.933
258.776
258.618
258.456
258.293
258.126
257.957
257.785
257.612
257.434
257.256
257.073
256.889
256.701
256.511
256.318
256.123
255.923
255.723
255.518
255.311
255.101
254.888
254.672
254.453
254.231
254.007
253.78
253.549
253.317
253.081
252.844
252.603
252.36
252.114
251.866
251.615
251.362
251.107
250.849
250.589
250.326
250.062
249.794
249.526
249.254
248.98
248.705
248.426
248.147
247.864
247.58
247.294
247.005
246.716
246.423
246.129
245.833
245.535
245.237
244.935
244.633
244.329
244.023
243.716
243.407
243.097
242.786
242.472
242.16
241.843
241.528
241.21
240.891
240.573
240.251
239.93
239.609
239.284
238.963
238.637
238.313
237.988
237.66
237.336
237.009
236.681
236.357
236.029
235.704
235.382
235.055
234.757
234.448
263.327
263.308
263.302
263.294
263.285
263.272
263.257
263.238
263.216
263.191
263.164
263.134
263.101
263.064
263.024
262.98
262.933
262.881
262.826
262.767
262.705
262.641
262.575
262.507
262.437
262.365
262.293
262.218
262.142
262.064
261.983
261.901
261.816
261.728
261.639
261.546
261.451
261.353
261.253
261.15
261.044
260.935
260.823
260.708
260.59
260.468
260.344
260.216
260.086
259.951
259.814
259.674
259.532
259.386
259.239
259.088
258.935
258.779
258.621
258.46
258.296
258.13
257.961
257.789
257.615
257.438
257.259
257.076
256.891
256.703
256.513
256.319
256.123
255.923
255.722
255.517
255.31
255.099
254.886
254.67
254.451
254.23
254.005
253.778
253.548
253.316
253.079
252.842
252.601
252.359
252.112
251.864
251.614
251.36
251.105
250.847
250.587
250.324
250.06
249.792
249.523
249.251
248.977
248.702
248.422
248.143
247.86
247.576
247.289
247
246.711
246.417
246.124
245.828
245.53
245.231
244.929
244.627
244.322
244.016
243.709
243.399
243.09
242.778
242.465
242.152
241.835
241.52
241.202
240.883
240.564
240.243
239.922
239.6
239.276
238.954
238.627
238.304
237.979
237.651
237.327
236.999
236.671
236.348
236.018
235.694
235.372
235.044
234.749
234.442
263.329
263.312
263.306
263.297
263.287
263.272
263.255
263.233
263.21
263.183
263.155
263.124
263.091
263.054
263.015
262.973
262.927
262.878
262.826
262.77
262.711
262.65
262.586
262.52
262.452
262.382
262.31
262.236
262.161
262.082
262.001
261.917
261.831
261.741
261.65
261.555
261.458
261.358
261.256
261.151
261.043
260.933
260.82
260.704
260.586
260.464
260.34
260.212
260.082
259.948
259.812
259.673
259.531
259.387
259.239
259.089
258.937
258.782
258.624
258.463
258.3
258.134
257.965
257.793
257.619
257.441
257.262
257.078
256.894
256.704
256.514
256.319
256.124
255.923
255.722
255.516
255.309
255.098
254.885
254.668
254.45
254.228
254.003
253.776
253.546
253.314
253.078
252.841
252.599
252.357
252.11
251.863
251.612
251.359
251.103
250.845
250.585
250.321
250.058
249.789
249.52
249.248
248.974
248.698
248.419
248.139
247.856
247.572
247.285
246.995
246.706
246.412
246.119
245.822
245.524
245.225
244.922
244.621
244.315
244.009
243.702
243.392
243.083
242.77
242.457
242.144
241.827
241.512
241.193
240.875
240.556
240.234
239.913
239.591
239.266
238.945
238.618
238.295
237.969
237.641
237.318
236.989
236.66
236.338
236.007
235.683
235.362
235.031
234.741
234.435
263.331
263.316
263.31
263.301
263.289
263.272
263.253
263.229
263.204
263.176
263.147
263.115
263.081
263.045
263.007
262.966
262.923
262.876
262.826
262.773
262.717
262.658
262.596
262.533
262.467
262.398
262.328
262.254
262.178
262.1
262.018
261.933
261.845
261.754
261.661
261.564
261.465
261.363
261.259
261.152
261.043
260.931
260.817
260.701
260.582
260.46
260.336
260.208
260.079
259.945
259.81
259.671
259.531
259.387
259.24
259.091
258.939
258.785
258.627
258.467
258.304
258.138
257.969
257.797
257.623
257.445
257.265
257.081
256.896
256.706
256.516
256.32
256.124
255.923
255.722
255.516
255.308
255.097
254.884
254.667
254.448
254.226
254.001
253.774
253.544
253.312
253.076
252.839
252.597
252.355
252.108
251.861
251.61
251.357
251.101
250.843
250.583
250.319
250.055
249.786
249.518
249.245
248.971
248.695
248.415
248.136
247.851
247.567
247.28
246.991
246.701
246.407
246.114
245.816
245.518
245.219
244.916
244.615
244.308
244.003
243.695
243.385
243.076
242.762
242.45
242.136
241.819
241.504
241.185
240.866
240.548
240.225
239.905
239.582
239.257
238.936
238.608
238.285
237.96
237.63
237.309
236.979
236.65
236.329
235.996
235.673
235.352
235.019
234.733
234.428
263.333
263.32
263.314
263.304
263.291
263.273
263.251
263.226
263.199
263.17
263.139
263.107
263.073
263.037
263
262.96
262.918
262.874
262.826
262.776
262.722
262.666
262.607
262.545
262.481
262.413
262.344
262.271
262.195
262.116
262.034
261.948
261.859
261.766
261.671
261.572
261.471
261.367
261.261
261.153
261.043
260.93
260.815
260.698
260.578
260.456
260.332
260.205
260.076
259.943
259.808
259.67
259.53
259.387
259.241
259.093
258.941
258.787
258.63
258.47
258.307
258.141
257.973
257.8
257.626
257.448
257.268
257.084
256.898
256.708
256.517
256.321
256.125
255.924
255.722
255.515
255.308
255.096
254.883
254.665
254.447
254.224
254
253.773
253.542
253.31
253.074
252.837
252.595
252.354
252.106
251.86
251.608
251.355
251.099
250.84
250.581
250.316
250.053
249.783
249.515
249.242
248.967
248.691
248.411
248.132
247.847
247.563
247.275
246.986
246.696
246.401
246.109
245.81
245.512
245.213
244.91
244.608
244.301
243.996
243.688
243.377
243.069
242.755
242.442
242.128
241.81
241.497
241.176
240.858
240.539
240.216
239.896
239.573
239.248
238.927
238.598
238.276
237.95
237.62
237.299
236.969
236.639
236.319
235.985
235.662
235.342
235.006
234.726
234.422
263.334
263.323
263.318
263.307
263.293
263.273
263.25
263.223
263.195
263.165
263.133
263.1
263.066
263.03
262.993
262.955
262.915
262.872
262.827
262.778
262.727
262.674
262.616
262.557
262.494
262.428
262.359
262.286
262.211
262.132
262.048
261.962
261.871
261.777
261.681
261.58
261.478
261.372
261.264
261.155
261.043
260.929
260.813
260.695
260.575
260.453
260.329
260.202
260.073
259.941
259.807
259.669
259.53
259.387
259.242
259.094
258.944
258.79
258.633
258.473
258.311
258.145
257.976
257.804
257.629
257.451
257.27
257.086
256.9
256.71
256.518
256.322
256.125
255.924
255.722
255.514
255.307
255.095
254.882
254.664
254.445
254.223
253.998
253.771
253.541
253.309
253.072
252.836
252.593
252.352
252.105
251.858
251.606
251.353
251.097
250.838
250.579
250.314
250.051
249.781
249.512
249.238
248.964
248.688
248.407
248.128
247.843
247.559
247.271
246.981
246.691
246.396
246.103
245.804
245.507
245.207
244.903
244.602
244.295
243.989
243.681
243.37
243.062
242.747
242.435
242.121
241.802
241.489
241.167
240.85
240.531
240.207
239.888
239.564
239.239
238.918
238.588
238.267
237.941
237.61
237.29
236.958
236.629
236.31
235.974
235.652
235.332
234.992
234.718
234.416
263.336
263.327
263.321
263.311
263.295
263.274
263.249
263.221
263.192
263.16
263.128
263.094
263.06
263.024
262.988
262.951
262.911
262.87
262.827
262.781
262.732
262.681
262.625
262.568
262.506
262.441
262.374
262.301
262.226
262.146
262.062
261.975
261.883
261.788
261.69
261.587
261.484
261.376
261.267
261.156
261.043
260.929
260.811
260.693
260.573
260.45
260.326
260.199
260.071
259.939
259.805
259.669
259.53
259.388
259.243
259.096
258.946
258.792
258.636
258.476
258.314
258.148
257.979
257.807
257.632
257.454
257.273
257.088
256.902
256.711
256.519
256.323
256.126
255.924
255.721
255.514
255.306
255.094
254.881
254.663
254.444
254.221
253.997
253.769
253.539
253.307
253.071
252.834
252.592
252.35
252.103
251.856
251.604
251.351
251.095
250.836
250.577
250.312
250.048
249.778
249.51
249.235
248.961
248.684
248.403
248.124
247.838
247.555
247.266
246.976
246.686
246.391
246.098
245.799
245.501
245.201
244.897
244.596
244.288
243.983
243.674
243.363
243.055
242.739
242.428
242.113
241.794
241.481
241.159
240.842
240.522
240.198
239.88
239.555
239.23
238.909
238.578
238.259
237.931
237.6
237.281
236.948
236.619
236.3
235.962
235.642
235.323
234.979
234.711
234.41
263.337
263.33
263.325
263.314
263.296
263.274
263.249
263.219
263.189
263.157
263.123
263.089
263.054
263.019
262.983
262.947
262.909
262.869
262.828
262.784
262.737
262.687
262.634
262.578
262.518
262.454
262.387
262.315
262.239
262.159
262.075
261.987
261.894
261.797
261.698
261.595
261.49
261.381
261.27
261.158
261.044
260.928
260.81
260.692
260.571
260.448
260.324
260.197
260.069
259.937
259.804
259.668
259.53
259.388
259.245
259.097
258.948
258.795
258.638
258.479
258.317
258.151
257.982
257.81
257.635
257.456
257.275
257.09
256.904
256.713
256.521
256.324
256.126
255.924
255.721
255.513
255.306
255.093
254.88
254.661
254.443
254.22
253.996
253.768
253.538
253.305
253.069
252.832
252.59
252.349
252.101
251.855
251.602
251.35
251.093
250.834
250.574
250.309
250.046
249.775
249.507
249.232
248.958
248.681
248.4
248.121
247.834
247.551
247.261
246.972
246.681
246.385
246.094
245.793
245.496
245.195
244.891
244.59
244.281
243.977
243.667
243.356
243.048
242.732
242.421
242.105
241.786
241.474
241.151
240.834
240.514
240.189
239.872
239.546
239.221
238.901
238.568
238.25
237.921
237.589
237.273
236.938
236.609
236.292
235.951
235.632
235.313
234.965
234.704
234.405
263.338
263.333
263.328
263.317
263.298
263.275
263.249
263.218
263.187
263.154
263.12
263.085
263.05
263.015
262.979
262.944
262.906
262.868
262.829
262.786
262.741
262.694
262.642
262.587
262.529
262.466
262.399
262.327
262.252
262.172
262.086
261.998
261.904
261.807
261.706
261.601
261.495
261.385
261.273
261.16
261.044
260.928
260.809
260.69
260.569
260.446
260.322
260.195
260.067
259.936
259.804
259.668
259.53
259.389
259.246
259.099
258.95
258.797
258.641
258.482
258.32
258.154
257.985
257.813
257.638
257.459
257.278
257.092
256.905
256.714
256.522
256.324
256.127
255.924
255.721
255.513
255.305
255.092
254.879
254.66
254.442
254.218
253.994
253.766
253.536
253.304
253.068
252.831
252.588
252.348
252.099
251.853
251.6
251.348
251.091
250.832
250.572
250.307
250.044
249.772
249.505
249.229
248.955
248.677
248.396
248.117
247.83
247.547
247.256
246.968
246.677
246.38
246.089
245.787
245.491
245.189
244.885
244.584
244.275
243.971
243.661
243.349
243.042
242.724
242.414
242.098
241.779
241.467
241.142
240.826
240.506
240.18
239.864
239.537
239.213
238.892
238.558
238.242
237.912
237.58
237.265
236.927
236.599
236.283
235.94
235.623
235.304
234.952
234.698
234.4
263.339
263.336
263.331
263.32
263.3
263.276
263.249
263.217
263.186
263.152
263.117
263.081
263.046
263.011
262.976
262.941
262.905
262.867
262.83
262.788
262.745
262.7
262.649
262.596
262.539
262.476
262.411
262.339
262.263
262.183
262.097
262.008
261.913
261.815
261.714
261.607
261.5
261.389
261.276
261.162
261.045
260.929
260.809
260.689
260.567
260.444
260.32
260.193
260.066
259.935
259.803
259.667
259.53
259.39
259.247
259.101
258.951
258.799
258.643
258.484
258.322
258.156
257.988
257.815
257.64
257.461
257.28
257.094
256.907
256.715
256.523
256.325
256.127
255.924
255.721
255.513
255.305
255.091
254.878
254.659
254.441
254.217
253.993
253.765
253.535
253.302
253.066
252.829
252.587
252.346
252.097
251.852
251.598
251.346
251.089
250.83
250.57
250.304
250.041
249.769
249.502
249.225
248.952
248.674
248.393
248.113
247.826
247.544
247.252
246.963
246.672
246.376
246.084
245.782
245.486
245.183
244.88
244.579
244.268
243.965
243.654
243.343
243.036
242.717
242.408
242.09
241.772
241.46
241.134
240.819
240.499
240.172
239.857
239.528
239.204
238.884
238.549
238.234
237.903
237.57
237.257
236.917
236.589
236.275
235.929
235.614
235.296
234.938
234.691
234.397
263.34
263.339
263.335
263.323
263.301
263.277
263.249
263.217
263.185
263.15
263.114
263.078
263.043
263.008
262.973
262.939
262.903
262.867
262.831
262.791
262.749
262.705
262.656
262.604
262.548
262.486
262.421
262.349
262.274
262.193
262.107
262.017
261.922
261.823
261.72
261.613
261.505
261.392
261.279
261.164
261.046
260.929
260.809
260.689
260.566
260.443
260.319
260.192
260.065
259.934
259.803
259.667
259.531
259.391
259.248
259.102
258.953
258.801
258.646
258.487
258.325
258.159
257.99
257.818
257.642
257.463
257.281
257.096
256.908
256.717
256.524
256.326
256.128
255.924
255.721
255.512
255.304
255.09
254.877
254.658
254.44
254.216
253.992
253.763
253.534
253.301
253.065
252.828
252.585
252.345
252.095
251.85
251.596
251.345
251.086
250.828
250.568
250.302
250.039
249.766
249.5
249.222
248.949
248.67
248.389
248.11
247.822
247.54
247.247
246.959
246.667
246.371
246.08
245.776
245.481
245.178
244.874
244.574
244.262
243.959
243.648
243.336
243.03
242.71
242.401
242.083
241.765
241.453
241.126
240.812
240.491
240.164
239.85
239.52
239.197
238.876
238.54
238.227
237.894
237.56
237.249
236.908
236.58
236.267
235.918
235.606
235.287
234.925
234.686
234.394
263.34
263.342
263.338
263.326
263.303
263.279
263.25
263.217
263.184
263.149
263.113
263.076
263.041
263.005
262.971
262.937
262.902
262.867
262.832
262.793
262.753
262.71
262.662
262.612
262.556
262.495
262.431
262.359
262.284
262.203
262.116
262.026
261.929
261.83
261.727
261.618
261.51
261.396
261.282
261.166
261.048
260.93
260.809
260.688
260.566
260.442
260.318
260.191
260.064
259.934
259.803
259.667
259.531
259.391
259.249
259.104
258.955
258.803
258.648
258.489
258.327
258.161
257.992
257.82
257.644
257.465
257.283
257.097
256.91
256.718
256.524
256.326
256.128
255.924
255.721
255.512
255.304
255.09
254.877
254.657
254.439
254.215
253.991
253.762
253.532
253.299
253.064
252.827
252.584
252.343
252.094
251.849
251.594
251.343
251.084
250.827
250.566
250.3
250.037
249.764
249.497
249.219
248.947
248.667
248.386
248.107
247.818
247.537
247.243
246.956
246.663
246.367
246.076
245.771
245.477
245.173
244.869
244.568
244.256
243.954
243.642
243.331
243.024
242.703
242.396
242.076
241.758
241.447
241.118
240.806
240.483
240.156
239.843
239.511
239.189
238.868
238.531
238.22
237.885
237.551
237.242
236.898
236.571
236.26
235.907
235.598
235.28
234.911
234.68
234.391
263.341
263.344
263.341
263.329
263.305
263.28
263.251
263.218
263.184
263.148
263.111
263.075
263.039
263.004
262.969
262.936
262.901
262.867
262.833
262.795
262.756
262.715
262.668
262.619
262.564
262.504
262.44
262.368
262.293
262.211
262.124
262.034
261.936
261.836
261.732
261.623
261.514
261.399
261.285
261.168
261.049
260.93
260.809
260.688
260.565
260.442
260.317
260.191
260.064
259.933
259.803
259.668
259.532
259.392
259.25
259.105
258.957
258.805
258.65
258.491
258.329
258.163
257.994
257.822
257.646
257.467
257.285
257.099
256.911
256.719
256.525
256.327
256.129
255.925
255.721
255.512
255.304
255.089
254.876
254.656
254.438
254.214
253.99
253.761
253.531
253.298
253.062
252.825
252.583
252.342
252.092
251.847
251.592
251.342
251.082
250.825
250.563
250.298
250.034
249.761
249.495
249.216
248.944
248.664
248.383
248.103
247.814
247.533
247.239
246.952
246.659
246.362
246.071
245.766
245.472
245.167
244.864
244.563
244.25
243.949
243.636
243.325
243.018
242.696
242.39
242.07
241.752
241.441
241.111
240.8
240.476
240.149
239.837
239.503
239.182
238.861
238.522
238.214
237.877
237.542
237.236
236.889
236.563
236.252
235.896
235.59
235.272
234.898
234.675
234.39
263.341
263.346
263.344
263.332
263.307
263.282
263.252
263.218
263.184
263.148
263.11
263.074
263.038
263.002
262.968
262.935
262.901
262.867
262.834
262.797
262.76
262.719
262.673
262.625
262.571
262.511
262.448
262.376
262.301
262.219
262.131
262.041
261.943
261.842
261.738
261.628
261.518
261.403
261.287
261.17
261.05
260.931
260.809
260.688
260.565
260.441
260.316
260.19
260.063
259.933
259.803
259.668
259.533
259.393
259.252
259.106
258.958
258.807
258.651
258.493
258.331
258.165
257.996
257.824
257.648
257.468
257.286
257.1
256.912
256.72
256.526
256.328
256.129
255.925
255.721
255.512
255.303
255.089
254.875
254.656
254.437
254.213
253.989
253.76
253.531
253.297
253.061
252.824
252.581
252.34
252.091
251.846
251.59
251.34
251.081
250.823
250.561
250.296
250.032
249.759
249.493
249.213
248.942
248.661
248.381
248.1
247.811
247.53
247.234
246.949
246.655
246.358
246.067
245.761
245.468
245.162
244.86
244.559
244.245
243.945
243.63
243.32
243.013
242.69
242.385
242.063
241.746
241.435
241.104
240.794
240.469
240.142
239.831
239.495
239.176
238.854
238.513
238.208
237.869
237.534
237.23
236.88
236.554
236.246
235.886
235.583
235.265
234.885
234.67
234.388
263.341
263.349
263.346
263.335
263.308
263.284
263.254
263.219
263.184
263.148
263.11
263.073
263.037
263.001
262.967
262.934
262.9
262.868
262.836
262.799
262.763
262.724
262.678
262.631
262.577
262.518
262.455
262.383
262.308
262.226
262.138
262.047
261.949
261.848
261.743
261.632
261.522
261.406
261.29
261.172
261.052
260.932
260.81
260.689
260.565
260.441
260.316
260.19
260.063
259.933
259.803
259.668
259.533
259.394
259.253
259.108
258.96
258.808
258.653
258.495
258.333
258.167
257.998
257.825
257.649
257.47
257.288
257.101
256.913
256.721
256.527
256.328
256.129
255.925
255.721
255.511
255.303
255.088
254.875
254.655
254.437
254.212
253.988
253.759
253.53
253.296
253.06
252.823
252.58
252.339
252.089
251.845
251.588
251.339
251.079
250.822
250.559
250.294
250.03
249.757
249.491
249.21
248.94
248.658
248.378
248.097
247.808
247.527
247.23
246.945
246.65
246.354
246.064
245.757
245.465
245.157
244.855
244.554
244.24
243.94
243.624
243.315
243.008
242.684
242.38
242.057
241.74
241.429
241.096
240.789
240.462
240.135
239.825
239.488
239.17
238.847
238.505
238.203
237.861
237.525
237.224
236.871
236.547
236.239
235.875
235.577
235.259
234.872
234.665
234.387
263.341
263.351
263.349
263.338
263.31
263.286
263.255
263.22
263.184
263.148
263.11
263.072
263.037
263.001
262.966
262.934
262.9
262.868
262.837
262.801
262.766
262.727
262.683
262.637
262.583
262.525
262.462
262.39
262.315
262.233
262.144
262.053
261.954
261.853
261.747
261.636
261.525
261.408
261.292
261.173
261.053
260.933
260.81
260.689
260.565
260.441
260.316
260.19
260.063
259.933
259.803
259.669
259.534
259.395
259.254
259.109
258.961
258.81
258.655
258.497
258.334
258.169
258
257.827
257.651
257.471
257.289
257.103
256.914
256.721
256.527
256.329
256.13
255.925
255.721
255.511
255.303
255.088
254.875
254.654
254.436
254.211
253.988
253.758
253.529
253.295
253.059
252.821
252.579
252.338
252.088
251.843
251.587
251.338
251.077
250.82
250.557
250.292
250.028
249.754
249.489
249.208
248.937
248.655
248.375
248.094
247.804
247.524
247.227
246.942
246.647
246.351
246.06
245.752
245.461
245.152
244.851
244.55
244.235
243.936
243.618
243.31
243.003
242.678
242.376
242.05
241.735
241.424
241.09
240.784
240.456
240.128
239.82
239.48
239.164
238.84
238.497
238.197
237.853
237.517
237.218
236.862
236.539
236.233
235.865
235.57
235.253
234.859
234.661
234.386
263.342
263.353
263.351
263.34
263.312
263.287
263.257
263.221
263.185
263.148
263.11
263.072
263.037
263
262.966
262.934
262.9
262.869
262.839
262.803
262.768
262.731
262.687
262.642
262.588
262.531
262.468
262.396
262.321
262.239
262.15
262.059
261.959
261.857
261.751
261.64
261.529
261.411
261.295
261.175
261.055
260.934
260.811
260.69
260.565
260.441
260.316
260.19
260.063
259.933
259.804
259.669
259.535
259.396
259.255
259.11
258.963
258.811
258.656
258.498
258.336
258.171
258.001
257.829
257.652
257.473
257.29
257.104
256.915
256.722
256.528
256.329
256.13
255.925
255.721
255.511
255.303
255.087
254.874
254.654
254.436
254.21
253.987
253.757
253.528
253.294
253.058
252.82
252.578
252.337
252.086
251.842
251.585
251.336
251.075
250.819
250.555
250.291
250.026
249.752
249.487
249.205
248.935
248.652
248.373
248.091
247.801
247.522
247.223
246.939
246.643
246.348
246.057
245.748
245.458
245.148
244.847
244.545
244.23
243.932
243.613
243.306
242.998
242.672
242.371
242.044
241.73
241.419
241.083
240.779
240.45
240.122
239.815
239.473
239.158
238.834
238.489
238.193
237.845
237.509
237.213
236.854
236.532
236.228
235.856
235.565
235.247
234.847
234.657
234.386
263.342
263.354
263.354
263.343
263.314
263.289
263.258
263.222
263.186
263.149
263.11
263.072
263.037
263
262.966
262.934
262.901
262.87
262.84
262.804
262.771
262.734
262.691
262.646
262.593
262.536
262.474
262.401
262.326
262.244
262.155
262.064
261.963
261.861
261.755
261.643
261.532
261.413
261.297
261.177
261.056
260.936
260.812
260.69
260.565
260.442
260.316
260.19
260.063
259.934
259.804
259.67
259.536
259.397
259.256
259.111
258.964
258.813
258.658
258.5
258.337
258.172
258.002
257.83
257.654
257.474
257.291
257.105
256.916
256.723
256.529
256.33
256.13
255.926
255.721
255.511
255.303
255.087
254.874
254.653
254.435
254.209
253.986
253.756
253.527
253.292
253.057
252.819
252.577
252.335
252.085
251.841
251.583
251.335
251.073
250.818
250.553