/*--------------------------------*- C++ -*----------------------------------*\
| =========                 |                                                 |
| \\      /  F ield         | OpenFOAM: The Open Source CFD Toolbox           |
|  \\    /   O peration     | Version:  v2012                                 |
|   \\  /    A nd           | Website:  www.openfoam.com                      |
|    \\/     M anipulation  |                                                 |
\*---------------------------------------------------------------------------*/
FoamFile
{
    version     2.0;
    format      ascii;
    class       volVectorField;
    location    "0.08";
    object      U;
}
// * * * * * * * * * * * * * * * * * * * * * * * * * * * * * * * * * * * * * //

dimensions      [0 1 -1 0 0 0 0];


internalField   nonuniform List<vector> 
18000
(
(190.879 -0.0309706 0)
(191.027 -0.0292989 0)
(191.108 -0.0351626 0)
(191.181 -0.043972 0)
(191.263 -0.0548645 0)
(191.364 -0.0663605 0)
(191.491 -0.0775833 0)
(191.649 -0.0869378 0)
(191.84 -0.0922228 0)
(192.063 -0.0930026 0)
(192.315 -0.0901797 0)
(192.598 -0.0855151 0)
(192.912 -0.0808717 0)
(193.261 -0.076955 0)
(193.648 -0.0750438 0)
(194.075 -0.0747586 0)
(194.543 -0.0767388 0)
(195.051 -0.0798285 0)
(195.595 -0.0834337 0)
(196.169 -0.087036 0)
(196.767 -0.0910001 0)
(197.382 -0.0944301 0)
(198.008 -0.0991686 0)
(198.644 -0.105837 0)
(199.288 -0.115353 0)
(199.943 -0.127186 0)
(200.609 -0.141617 0)
(201.291 -0.157522 0)
(201.989 -0.17462 0)
(202.703 -0.191417 0)
(203.434 -0.207852 0)
(204.18 -0.22222 0)
(204.939 -0.235159 0)
(205.709 -0.245448 0)
(206.491 -0.254359 0)
(207.286 -0.261271 0)
(208.097 -0.267509 0)
(208.926 -0.272533 0)
(209.779 -0.27758 0)
(210.658 -0.281659 0)
(211.566 -0.286263 0)
(212.505 -0.289145 0)
(213.474 -0.292495 0)
(214.476 -0.293367 0)
(215.504 -0.294507 0)
(216.559 -0.293081 0)
(217.634 -0.292052 0)
(218.73 -0.289157 0)
(219.841 -0.287317 0)
(220.968 -0.284607 0)
(222.108 -0.283749 0)
(223.263 -0.282684 0)
(224.431 -0.283947 0)
(225.617 -0.285044 0)
(226.818 -0.288482 0)
(228.039 -0.291501 0)
(229.276 -0.296491 0)
(230.532 -0.300172 0)
(231.803 -0.305674 0)
(233.091 -0.309243 0)
(234.391 -0.314159 0)
(235.705 -0.316639 0)
(237.027 -0.320399 0)
(238.36 -0.321741 0)
(239.699 -0.324511 0)
(241.05 -0.325195 0)
(242.406 -0.327424 0)
(243.775 -0.328051 0)
(245.152 -0.330184 0)
(246.543 -0.331158 0)
(247.946 -0.333263 0)
(249.366 -0.334689 0)
(250.799 -0.336612 0)
(252.25 -0.338279 0)
(253.716 -0.339474 0)
(255.199 -0.340692 0)
(256.697 -0.340837 0)
(258.209 -0.341416 0)
(259.736 -0.340282 0)
(261.273 -0.339851 0)
(262.823 -0.337499 0)
(264.38 -0.33599 0)
(265.949 -0.332852 0)
(267.522 -0.33052 0)
(269.104 -0.327234 0)
(270.69 -0.324444 0)
(272.283 -0.321597 0)
(273.882 -0.318712 0)
(275.487 -0.316571 0)
(277.098 -0.313805 0)
(278.715 -0.312398 0)
(280.341 -0.309992 0)
(281.972 -0.308958 0)
(283.614 -0.307098 0)
(285.261 -0.306064 0)
(286.918 -0.304659 0)
(288.581 -0.303172 0)
(290.253 -0.301828 0)
(291.932 -0.299767 0)
(293.618 -0.298128 0)
(295.31 -0.295431 0)
(297.007 -0.293094 0)
(298.71 -0.289959 0)
(300.415 -0.286632 0)
(302.125 -0.283054 0)
(303.836 -0.278818 0)
(305.549 -0.274689 0)
(307.264 -0.269901 0)
(308.978 -0.265022 0)
(310.693 -0.260086 0)
(312.409 -0.254574 0)
(314.124 -0.249636 0)
(315.841 -0.243869 0)
(317.556 -0.238903 0)
(319.273 -0.233363 0)
(320.987 -0.2283 0)
(322.703 -0.222936 0)
(324.419 -0.21784 0)
(326.135 -0.212557 0)
(327.852 -0.207806 0)
(329.57 -0.202528 0)
(331.288 -0.198232 0)
(333.008 -0.193033 0)
(334.725 -0.1892 0)
(336.447 -0.184622 0)
(338.165 -0.181152 0)
(339.888 -0.177468 0)
(341.608 -0.174759 0)
(343.331 -0.172196 0)
(345.049 -0.170766 0)
(346.767 -0.169226 0)
(348.479 -0.168976 0)
(350.191 -0.167809 0)
(351.891 -0.167133 0)
(353.59 -0.164351 0)
(355.277 -0.160117 0)
(356.96 -0.15394 0)
(358.635 -0.146415 0)
(360.303 -0.137499 0)
(361.967 -0.128908 0)
(363.624 -0.118378 0)
(365.267 -0.109669 0)
(366.914 -0.0980669 0)
(368.539 -0.089084 0)
(370.163 -0.0796466 0)
(371.769 -0.0720962 0)
(373.356 -0.0597613 0)
(374.932 -0.0473798 0)
(376.451 -0.0306733 0)
(377.974 -0.0191238 0)
(190.872 -0.0913289 0)
(191.021 -0.0901268 0)
(191.106 -0.108382 0)
(191.182 -0.133246 0)
(191.267 -0.163511 0)
(191.372 -0.195272 0)
(191.502 -0.225337 0)
(191.663 -0.247299 0)
(191.857 -0.256343 0)
(192.082 -0.252138 0)
(192.334 -0.237747 0)
(192.615 -0.219566 0)
(192.926 -0.203542 0)
(193.271 -0.192134 0)
(193.652 -0.188952 0)
(194.072 -0.192455 0)
(194.533 -0.203718 0)
(195.035 -0.218584 0)
(195.574 -0.235376 0)
(196.145 -0.251334 0)
(196.74 -0.267012 0)
(197.354 -0.282371 0)
(197.981 -0.301422 0)
(198.619 -0.32551 0)
(199.266 -0.357219 0)
(199.925 -0.394888 0)
(200.597 -0.439379 0)
(201.284 -0.487405 0)
(201.987 -0.538183 0)
(202.708 -0.587405 0)
(203.445 -0.634833 0)
(204.198 -0.675406 0)
(204.963 -0.711068 0)
(205.741 -0.738065 0)
(206.529 -0.760578 0)
(207.331 -0.776731 0)
(208.146 -0.790907 0)
(208.98 -0.801708 0)
(209.835 -0.812719 0)
(210.715 -0.821223 0)
(211.623 -0.831301 0)
(212.562 -0.837132 0)
(213.531 -0.844871 0)
(214.53 -0.846065 0)
(215.556 -0.848766 0)
(216.608 -0.844425 0)
(217.681 -0.841906 0)
(218.775 -0.834188 0)
(219.883 -0.830027 0)
(221.008 -0.823497 0)
(222.146 -0.822625 0)
(223.3 -0.821264 0)
(224.467 -0.826748 0)
(225.652 -0.831884 0)
(226.852 -0.84408 0)
(228.072 -0.854012 0)
(229.308 -0.870023 0)
(230.564 -0.882423 0)
(231.835 -0.899703 0)
(233.123 -0.910969 0)
(234.423 -0.925915 0)
(235.738 -0.933519 0)
(237.062 -0.944736 0)
(238.397 -0.948566 0)
(239.738 -0.956478 0)
(241.09 -0.957943 0)
(242.449 -0.964008 0)
(243.819 -0.965041 0)
(245.198 -0.970714 0)
(246.591 -0.972627 0)
(247.994 -0.978261 0)
(249.414 -0.981319 0)
(250.848 -0.986431 0)
(252.298 -0.990103 0)
(253.764 -0.993386 0)
(255.246 -0.99639 0)
(256.743 -0.996838 0)
(258.254 -0.998076 0)
(259.779 -0.994804 0)
(261.315 -0.993381 0)
(262.863 -0.986548 0)
(264.419 -0.982316 0)
(265.986 -0.973178 0)
(267.559 -0.966856 0)
(269.14 -0.957133 0)
(270.725 -0.949549 0)
(272.318 -0.940923 0)
(273.916 -0.933038 0)
(275.52 -0.926502 0)
(277.131 -0.918806 0)
(278.748 -0.914588 0)
(280.373 -0.907657 0)
(282.004 -0.904813 0)
(283.645 -0.899179 0)
(285.291 -0.89661 0)
(286.947 -0.892088 0)
(288.609 -0.888156 0)
(290.28 -0.883825 0)
(291.957 -0.877991 0)
(293.641 -0.873142 0)
(295.332 -0.865096 0)
(297.027 -0.858344 0)
(298.729 -0.848584 0)
(300.432 -0.838858 0)
(302.14 -0.827738 0)
(303.85 -0.815059 0)
(305.561 -0.802655 0)
(307.274 -0.788109 0)
(308.987 -0.7739 0)
(310.701 -0.758713 0)
(312.414 -0.742496 0)
(314.127 -0.727283 0)
(315.842 -0.709824 0)
(317.554 -0.694751 0)
(319.268 -0.677562 0)
(320.98 -0.662116 0)
(322.693 -0.645421 0)
(324.404 -0.629456 0)
(326.117 -0.61311 0)
(327.829 -0.597433 0)
(329.542 -0.580705 0)
(331.254 -0.565857 0)
(332.967 -0.548201 0)
(334.677 -0.534092 0)
(336.391 -0.516498 0)
(338.099 -0.502263 0)
(339.812 -0.485911 0)
(341.521 -0.471933 0)
(343.232 -0.456527 0)
(344.94 -0.441382 0)
(346.649 -0.422844 0)
(348.354 -0.405395 0)
(350.062 -0.383215 0)
(351.763 -0.363148 0)
(353.467 -0.34127 0)
(355.16 -0.320784 0)
(356.85 -0.300777 0)
(358.533 -0.280816 0)
(360.208 -0.259895 0)
(361.879 -0.240815 0)
(363.542 -0.21851 0)
(365.193 -0.199319 0)
(366.846 -0.175951 0)
(368.482 -0.150309 0)
(370.118 -0.123041 0)
(371.739 -0.0989462 0)
(373.339 -0.0736325 0)
(374.924 -0.0500815 0)
(376.443 -0.0271429 0)
(377.966 -0.0113964 0)
(190.856 -0.146436 0)
(191.002 -0.146318 0)
(191.085 -0.175108 0)
(191.162 -0.21414 0)
(191.247 -0.262215 0)
(191.352 -0.312809 0)
(191.483 -0.360917 0)
(191.649 -0.395816 0)
(191.848 -0.410849 0)
(192.078 -0.405564 0)
(192.337 -0.384603 0)
(192.623 -0.357757 0)
(192.938 -0.334052 0)
(193.286 -0.317193 0)
(193.669 -0.312999 0)
(194.09 -0.319169 0)
(194.55 -0.337685 0)
(195.051 -0.361878 0)
(195.587 -0.388705 0)
(196.155 -0.414858 0)
(196.747 -0.442311 0)
(197.357 -0.468229 0)
(197.98 -0.49887 0)
(198.614 -0.536662 0)
(199.257 -0.586346 0)
(199.912 -0.645448 0)
(200.579 -0.715644 0)
(201.262 -0.791684 0)
(201.961 -0.872354 0)
(202.679 -0.950722 0)
(203.413 -1.02624 0)
(204.165 -1.09077 0)
(204.93 -1.14757 0)
(205.709 -1.19044 0)
(206.5 -1.22647 0)
(207.305 -1.25234 0)
(208.124 -1.27527 0)
(208.962 -1.29295 0)
(209.821 -1.31097 0)
(210.706 -1.32495 0)
(211.617 -1.34145 0)
(212.558 -1.3513 0)
(213.529 -1.36421 0)
(214.53 -1.36674 0)
(215.557 -1.37182 0)
(216.61 -1.36554 0)
(217.684 -1.3623 0)
(218.778 -1.35052 0)
(219.888 -1.34445 0)
(221.014 -1.33433 0)
(222.152 -1.33317 0)
(223.307 -1.33104 0)
(224.474 -1.3398 0)
(225.659 -1.34791 0)
(226.859 -1.36701 0)
(228.078 -1.38359 0)
(229.313 -1.40964 0)
(230.567 -1.42956 0)
(231.836 -1.45704 0)
(233.123 -1.47492 0)
(234.422 -1.49889 0)
(235.736 -1.51113 0)
(237.058 -1.52921 0)
(238.393 -1.53527 0)
(239.735 -1.54799 0)
(241.087 -1.55017 0)
(242.447 -1.55993 0)
(243.819 -1.56132 0)
(245.199 -1.57041 0)
(246.593 -1.57313 0)
(247.998 -1.58218 0)
(249.42 -1.58671 0)
(250.854 -1.59495 0)
(252.306 -1.60043 0)
(253.772 -1.60594 0)
(255.254 -1.61064 0)
(256.751 -1.61146 0)
(258.263 -1.61331 0)
(259.788 -1.60827 0)
(261.324 -1.60605 0)
(262.873 -1.59524 0)
(264.429 -1.58868 0)
(265.996 -1.57408 0)
(267.569 -1.56423 0)
(269.151 -1.54851 0)
(270.737 -1.53657 0)
(272.331 -1.5224 0)
(273.929 -1.50986 0)
(275.535 -1.499 0)
(277.147 -1.48662 0)
(278.765 -1.47955 0)
(280.39 -1.46821 0)
(282.022 -1.46343 0)
(283.663 -1.45387 0)
(285.309 -1.44955 0)
(286.966 -1.44158 0)
(288.628 -1.43515 0)
(290.299 -1.42766 0)
(291.976 -1.41825 0)
(293.66 -1.41017 0)
(295.351 -1.39698 0)
(297.046 -1.38604 0)
(298.747 -1.37003 0)
(300.451 -1.35444 0)
(302.159 -1.33627 0)
(303.869 -1.31583 0)
(305.581 -1.29567 0)
(307.295 -1.27202 0)
(309.008 -1.24923 0)
(310.723 -1.2246 0)
(312.438 -1.19877 0)
(314.153 -1.17424 0)
(315.869 -1.14625 0)
(317.583 -1.12203 0)
(319.3 -1.09414 0)
(321.013 -1.06925 0)
(322.729 -1.04214 0)
(324.443 -1.01634 0)
(326.159 -0.990023 0)
(327.874 -0.964668 0)
(329.59 -0.938034 0)
(331.306 -0.914143 0)
(333.024 -0.885984 0)
(334.738 -0.863407 0)
(336.456 -0.835004 0)
(338.169 -0.811849 0)
(339.886 -0.784646 0)
(341.598 -0.760573 0)
(343.31 -0.734635 0)
(345.018 -0.710008 0)
(346.724 -0.680819 0)
(348.426 -0.653255 0)
(350.13 -0.617535 0)
(351.825 -0.584448 0)
(353.523 -0.547625 0)
(355.21 -0.513029 0)
(356.897 -0.47891 0)
(358.575 -0.444862 0)
(360.247 -0.410972 0)
(361.915 -0.379379 0)
(363.574 -0.344774 0)
(365.221 -0.314838 0)
(366.873 -0.282353 0)
(368.503 -0.249484 0)
(370.133 -0.212396 0)
(371.75 -0.175634 0)
(373.346 -0.136583 0)
(374.932 -0.0965941 0)
(376.443 -0.0592203 0)
(377.968 -0.0313704 0)
(190.836 -0.195773 0)
(190.977 -0.198015 0)
(191.06 -0.236247 0)
(191.138 -0.286769 0)
(191.223 -0.350258 0)
(191.329 -0.417822 0)
(191.463 -0.48187 0)
(191.633 -0.528639 0)
(191.837 -0.550021 0)
(192.071 -0.545431 0)
(192.333 -0.520389 0)
(192.621 -0.487214 0)
(192.937 -0.457614 0)
(193.283 -0.436438 0)
(193.663 -0.431653 0)
(194.08 -0.440458 0)
(194.535 -0.465921 0)
(195.03 -0.499203 0)
(195.56 -0.536323 0)
(196.122 -0.5725 0)
(196.708 -0.611057 0)
(197.314 -0.647732 0)
(197.933 -0.690091 0)
(198.564 -0.741077 0)
(199.205 -0.807443 0)
(199.857 -0.885913 0)
(200.523 -0.979179 0)
(201.205 -1.08023 0)
(201.904 -1.18753 0)
(202.622 -1.29177 0)
(203.357 -1.3921 0)
(204.111 -1.47768 0)
(204.879 -1.55317 0)
(205.663 -1.60991 0)
(206.46 -1.65803 0)
(207.271 -1.69244 0)
(208.096 -1.72324 0)
(208.94 -1.74717 0)
(209.804 -1.7715 0)
(210.692 -1.7909 0)
(211.605 -1.81332 0)
(212.548 -1.82717 0)
(213.518 -1.84515 0)
(214.519 -1.84939 0)
(215.544 -1.85727 0)
(216.596 -1.84983 0)
(217.668 -1.84674 0)
(218.761 -1.83191 0)
(219.869 -1.82485 0)
(220.994 -1.81195 0)
(222.132 -1.81102 0)
(223.285 -1.80853 0)
(224.452 -1.82061 0)
(225.636 -1.83174 0)
(226.835 -1.85761 0)
(228.053 -1.87999 0)
(229.286 -1.91524 0)
(230.539 -1.94204 0)
(231.806 -1.97888 0)
(233.092 -2.00287 0)
(234.389 -2.03519 0)
(235.703 -2.05167 0)
(237.025 -2.07611 0)
(238.361 -2.08416 0)
(239.703 -2.1014 0)
(241.058 -2.10413 0)
(242.419 -2.11738 0)
(243.793 -2.11885 0)
(245.175 -2.13116 0)
(246.572 -2.13429 0)
(247.979 -2.14657 0)
(249.402 -2.15212 0)
(250.838 -2.16337 0)
(252.291 -2.17032 0)
(253.757 -2.17785 0)
(255.24 -2.18378 0)
(256.737 -2.18519 0)
(258.248 -2.18751 0)
(259.773 -2.18106 0)
(261.309 -2.17818 0)
(262.857 -2.16395 0)
(264.414 -2.15551 0)
(265.981 -2.13598 0)
(267.554 -2.12323 0)
(269.136 -2.10194 0)
(270.723 -2.08644 0)
(272.318 -2.06699 0)
(273.917 -2.05052 0)
(275.525 -2.0354 0)
(277.137 -2.01886 0)
(278.756 -2.00899 0)
(280.383 -1.99354 0)
(282.016 -1.98696 0)
(283.658 -1.97344 0)
(285.305 -1.96757 0)
(286.962 -1.9559 0)
(288.624 -1.94734 0)
(290.296 -1.93655 0)
(291.974 -1.92388 0)
(293.658 -1.91247 0)
(295.349 -1.89428 0)
(297.044 -1.87943 0)
(298.746 -1.85738 0)
(300.45 -1.83656 0)
(302.159 -1.81174 0)
(303.869 -1.78429 0)
(305.582 -1.75698 0)
(307.296 -1.72481 0)
(309.01 -1.69422 0)
(310.727 -1.66057 0)
(312.442 -1.62605 0)
(314.16 -1.59282 0)
(315.877 -1.55517 0)
(317.593 -1.52255 0)
(319.311 -1.48465 0)
(321.026 -1.45117 0)
(322.743 -1.4143 0)
(324.458 -1.37933 0)
(326.174 -1.34371 0)
(327.891 -1.30903 0)
(329.607 -1.27307 0)
(331.323 -1.24027 0)
(333.039 -1.20203 0)
(334.753 -1.17112 0)
(336.469 -1.13191 0)
(338.18 -1.09976 0)
(339.895 -1.06109 0)
(341.603 -1.02602 0)
(343.312 -0.987827 0)
(345.017 -0.950947 0)
(346.718 -0.909928 0)
(348.417 -0.87233 0)
(350.115 -0.826556 0)
(351.807 -0.787288 0)
(353.504 -0.7407 0)
(355.19 -0.697308 0)
(356.879 -0.651919 0)
(358.561 -0.604899 0)
(360.235 -0.559069 0)
(361.907 -0.512885 0)
(363.566 -0.463648 0)
(365.216 -0.42027 0)
(366.866 -0.367584 0)
(368.492 -0.317597 0)
(370.122 -0.268465 0)
(371.743 -0.221759 0)
(373.342 -0.173185 0)
(374.937 -0.120693 0)
(376.443 -0.0718469 0)
(377.973 -0.0374849 0)
(190.811 -0.238461 0)
(190.948 -0.244458 0)
(191.029 -0.291177 0)
(191.11 -0.351268 0)
(191.197 -0.428372 0)
(191.307 -0.511191 0)
(191.445 -0.590221 0)
(191.62 -0.648308 0)
(191.829 -0.676951 0)
(192.069 -0.675202 0)
(192.335 -0.649024 0)
(192.626 -0.612477 0)
(192.944 -0.579586 0)
(193.29 -0.55594 0)
(193.668 -0.551325 0)
(194.081 -0.562778 0)
(194.531 -0.594717 0)
(195.019 -0.636504 0)
(195.542 -0.683451 0)
(196.097 -0.729422 0)
(196.676 -0.778174 0)
(197.276 -0.8251 0)
(197.89 -0.878579 0)
(198.517 -0.941414 0)
(199.154 -1.0223 0)
(199.804 -1.11726 0)
(200.467 -1.2304 0)
(201.147 -1.35305 0)
(201.844 -1.48342 0)
(202.561 -1.61017 0)
(203.297 -1.73205 0)
(204.053 -1.83603 0)
(204.824 -1.92808 0)
(205.613 -1.99704 0)
(206.415 -2.05621 0)
(207.234 -2.0984 0)
(208.066 -2.13662 0)
(208.917 -2.16661 0)
(209.786 -2.19701 0)
(210.679 -2.22194 0)
(211.597 -2.25029 0)
(212.542 -2.26859 0)
(213.513 -2.29181 0)
(214.514 -2.2984 0)
(215.539 -2.30972 0)
(216.59 -2.30207 0)
(217.661 -2.30015 0)
(218.753 -2.28332 0)
(219.86 -2.27618 0)
(220.984 -2.26125 0)
(222.121 -2.26096 0)
(223.274 -2.25833 0)
(224.441 -2.27354 0)
(225.624 -2.28745 0)
(226.822 -2.31942 0)
(228.038 -2.34698 0)
(229.27 -2.39038 0)
(230.52 -2.42343 0)
(231.786 -2.46881 0)
(233.07 -2.4984 0)
(234.366 -2.53829 0)
(235.679 -2.55855 0)
(237.001 -2.58881 0)
(238.337 -2.59867 0)
(239.681 -2.62015 0)
(241.037 -2.62325 0)
(242.401 -2.63978 0)
(243.778 -2.64107 0)
(245.163 -2.65638 0)
(246.562 -2.65953 0)
(247.971 -2.67486 0)
(249.397 -2.68094 0)
(250.834 -2.6951 0)
(252.288 -2.70293 0)
(253.755 -2.71262 0)
(255.239 -2.71934 0)
(256.736 -2.7216 0)
(258.247 -2.72417 0)
(259.771 -2.71671 0)
(261.308 -2.71328 0)
(262.855 -2.69623 0)
(264.412 -2.6863 0)
(265.979 -2.66233 0)
(267.552 -2.64726 0)
(269.135 -2.62079 0)
(270.722 -2.60248 0)
(272.319 -2.57795 0)
(273.919 -2.55824 0)
(275.528 -2.53882 0)
(277.141 -2.51862 0)
(278.762 -2.50578 0)
(280.39 -2.48641 0)
(282.023 -2.47791 0)
(283.666 -2.46026 0)
(285.314 -2.45296 0)
(286.972 -2.43727 0)
(288.635 -2.42692 0)
(290.307 -2.41256 0)
(291.984 -2.39694 0)
(293.669 -2.38197 0)
(295.359 -2.35897 0)
(297.054 -2.34053 0)
(298.756 -2.31264 0)
(300.459 -2.28722 0)
(302.169 -2.25601 0)
(303.879 -2.22234 0)
(305.593 -2.18845 0)
(307.307 -2.14841 0)
(309.022 -2.1108 0)
(310.74 -2.06848 0)
(312.456 -2.02612 0)
(314.176 -1.98454 0)
(315.893 -1.93798 0)
(317.611 -1.89751 0)
(319.331 -1.85009 0)
(321.047 -1.8087 0)
(322.766 -1.76252 0)
(324.482 -1.71899 0)
(326.2 -1.67475 0)
(327.918 -1.63114 0)
(329.634 -1.58658 0)
(331.353 -1.54498 0)
(333.068 -1.49726 0)
(334.783 -1.45839 0)
(336.5 -1.4089 0)
(338.21 -1.3686 0)
(339.926 -1.31943 0)
(341.635 -1.27501 0)
(343.346 -1.22666 0)
(345.053 -1.17957 0)
(346.757 -1.12837 0)
(348.46 -1.08121 0)
(350.161 -1.02479 0)
(351.854 -0.976904 0)
(353.549 -0.919002 0)
(355.232 -0.865668 0)
(356.918 -0.808888 0)
(358.595 -0.750037 0)
(360.265 -0.692996 0)
(361.935 -0.634465 0)
(363.591 -0.57337 0)
(365.243 -0.518709 0)
(366.896 -0.45297 0)
(368.529 -0.395503 0)
(370.168 -0.337929 0)
(371.789 -0.278774 0)
(373.385 -0.21989 0)
(374.981 -0.154782 0)
(376.473 -0.0948211 0)
(378 -0.0521466 0)
(190.783 -0.275489 0)
(190.916 -0.285931 0)
(190.994 -0.340104 0)
(191.079 -0.408049 0)
(191.168 -0.496904 0)
(191.281 -0.593082 0)
(191.424 -0.685885 0)
(191.605 -0.754731 0)
(191.819 -0.791306 0)
(192.063 -0.794165 0)
(192.334 -0.769417 0)
(192.629 -0.732047 0)
(192.948 -0.698228 0)
(193.295 -0.673931 0)
(193.671 -0.6704 0)
(194.08 -0.684825 0)
(194.524 -0.723092 0)
(195.006 -0.772984 0)
(195.521 -0.829364 0)
(196.067 -0.884782 0)
(196.639 -0.94328 0)
(197.232 -0.999802 0)
(197.841 -1.06362 0)
(198.463 -1.13718 0)
(199.097 -1.23088 0)
(199.744 -1.33997 0)
(200.404 -1.4702 0)
(201.083 -1.61123 0)
(201.779 -1.76127 0)
(202.496 -1.90732 0)
(203.233 -2.04769 0)
(203.991 -2.16757 0)
(204.766 -2.27417 0)
(205.561 -2.35376 0)
(206.369 -2.42297 0)
(207.195 -2.47209 0)
(208.034 -2.51722 0)
(208.892 -2.55299 0)
(209.768 -2.58916 0)
(210.666 -2.61967 0)
(211.588 -2.65389 0)
(212.535 -2.67707 0)
(213.508 -2.70571 0)
(214.508 -2.71524 0)
(215.533 -2.73057 0)
(216.583 -2.7236 0)
(217.652 -2.72378 0)
(218.743 -2.70593 0)
(219.849 -2.6996 0)
(220.972 -2.68338 0)
(222.108 -2.68422 0)
(223.261 -2.68177 0)
(224.426 -2.70001 0)
(225.609 -2.71653 0)
(226.805 -2.75398 0)
(228.02 -2.78624 0)
(229.25 -2.83676 0)
(230.499 -2.8754 0)
(231.763 -2.92849 0)
(233.045 -2.96315 0)
(234.34 -3.00982 0)
(235.651 -3.03343 0)
(236.973 -3.06903 0)
(238.31 -3.08053 0)
(239.655 -3.10602 0)
(241.014 -3.10938 0)
(242.379 -3.12902 0)
(243.759 -3.12991 0)
(245.146 -3.14809 0)
(246.549 -3.15091 0)
(247.961 -3.16915 0)
(249.389 -3.17528 0)
(250.827 -3.19226 0)
(252.284 -3.20046 0)
(253.751 -3.21236 0)
(255.236 -3.21942 0)
(256.732 -3.22272 0)
(258.244 -3.22529 0)
(259.768 -3.21725 0)
(261.304 -3.21332 0)
(262.851 -3.19398 0)
(264.407 -3.18285 0)
(265.974 -3.15501 0)
(267.547 -3.1382 0)
(269.131 -3.10694 0)
(270.719 -3.08648 0)
(272.317 -3.05701 0)
(273.918 -3.03482 0)
(275.529 -3.0111 0)
(277.143 -2.98788 0)
(278.766 -2.97188 0)
(280.394 -2.94888 0)
(282.03 -2.93837 0)
(283.674 -2.91656 0)
(285.322 -2.90796 0)
(286.982 -2.88798 0)
(288.644 -2.87612 0)
(290.317 -2.85779 0)
(291.993 -2.83948 0)
(293.679 -2.8208 0)
(295.369 -2.79335 0)
(297.064 -2.77162 0)
(298.766 -2.73801 0)
(300.469 -2.70851 0)
(302.18 -2.67098 0)
(303.889 -2.63186 0)
(305.604 -2.59186 0)
(307.319 -2.54466 0)
(309.035 -2.50085 0)
(310.754 -2.45023 0)
(312.471 -2.40094 0)
(314.193 -2.35129 0)
(315.911 -2.29657 0)
(317.632 -2.24878 0)
(319.353 -2.1924 0)
(321.071 -2.14388 0)
(322.792 -2.08881 0)
(324.509 -2.03738 0)
(326.23 -1.98516 0)
(327.949 -1.93306 0)
(329.666 -1.88077 0)
(331.387 -1.83066 0)
(333.102 -1.7743 0)
(334.819 -1.72794 0)
(336.536 -1.66874 0)
(338.248 -1.62117 0)
(339.965 -1.56222 0)
(341.674 -1.50957 0)
(343.386 -1.45225 0)
(345.094 -1.39584 0)
(346.798 -1.33557 0)
(348.504 -1.27916 0)
(350.203 -1.21218 0)
(351.898 -1.15552 0)
(353.594 -1.08616 0)
(355.277 -1.02345 0)
(356.965 -0.956045 0)
(358.642 -0.886419 0)
(360.314 -0.819577 0)
(361.988 -0.749985 0)
(363.643 -0.67806 0)
(365.299 -0.613191 0)
(366.953 -0.535697 0)
(368.581 -0.468518 0)
(370.213 -0.39712 0)
(371.828 -0.323072 0)
(373.42 -0.254628 0)
(375.022 -0.178382 0)
(376.501 -0.109628 0)
(378.028 -0.0616462 0)
(190.752 -0.308005 0)
(190.882 -0.322202 0)
(190.956 -0.382633 0)
(191.044 -0.457394 0)
(191.135 -0.556357 0)
(191.253 -0.664257 0)
(191.401 -0.769848 0)
(191.588 -0.849163 0)
(191.807 -0.894199 0)
(192.056 -0.903159 0)
(192.331 -0.882166 0)
(192.629 -0.846245 0)
(192.95 -0.813658 0)
(193.298 -0.790498 0)
(193.673 -0.789104 0)
(194.079 -0.807099 0)
(194.517 -0.851804 0)
(194.991 -0.909558 0)
(195.498 -0.975016 0)
(196.037 -1.03944 0)
(196.6 -1.10713 0)
(197.186 -1.17255 0)
(197.789 -1.24569 0)
(198.407 -1.32874 0)
(199.037 -1.43375 0)
(199.681 -1.55488 0)
(200.339 -1.69967 0)
(201.017 -1.85601 0)
(201.712 -2.02249 0)
(202.43 -2.18481 0)
(203.168 -2.3407 0)
(203.928 -2.47414 0)
(204.707 -2.59335 0)
(205.507 -2.68205 0)
(206.321 -2.76036 0)
(207.154 -2.81559 0)
(208.001 -2.86715 0)
(208.866 -2.90841 0)
(209.749 -2.95006 0)
(210.652 -2.98636 0)
(211.578 -3.02624 0)
(212.528 -3.05472 0)
(213.503 -3.08897 0)
(214.504 -3.10208 0)
(215.528 -3.12196 0)
(216.577 -3.11649 0)
(217.645 -3.11964 0)
(218.734 -3.10165 0)
(219.838 -3.09699 0)
(220.96 -3.0802 0)
(222.096 -3.08268 0)
(223.247 -3.08072 0)
(224.412 -3.10196 0)
(225.593 -3.12092 0)
(226.788 -3.16334 0)
(228.002 -3.1998 0)
(229.23 -3.25652 0)
(230.478 -3.30014 0)
(231.74 -3.3601 0)
(233.02 -3.39926 0)
(234.314 -3.45195 0)
(235.625 -3.47857 0)
(236.947 -3.51904 0)
(238.284 -3.532 0)
(239.63 -3.56123 0)
(240.991 -3.56473 0)
(242.359 -3.58732 0)
(243.741 -3.58763 0)
(245.132 -3.60853 0)
(246.537 -3.61071 0)
(247.951 -3.63174 0)
(249.382 -3.63749 0)
(250.823 -3.6572 0)
(252.281 -3.66531 0)
(253.749 -3.67945 0)
(255.235 -3.68644 0)
(256.732 -3.691 0)
(258.244 -3.69334 0)
(259.767 -3.68516 0)
(261.303 -3.68065 0)
(262.849 -3.65954 0)
(264.406 -3.64748 0)
(265.972 -3.6164 0)
(267.546 -3.59839 0)
(269.13 -3.56273 0)
(270.718 -3.5407 0)
(272.318 -3.50635 0)
(273.92 -3.48232 0)
(275.532 -3.45422 0)
(277.147 -3.42863 0)
(278.773 -3.40928 0)
(280.402 -3.38304 0)
(282.039 -3.37036 0)
(283.684 -3.34446 0)
(285.334 -3.33468 0)
(286.994 -3.31013 0)
(288.657 -3.29703 0)
(290.331 -3.27426 0)
(292.007 -3.2536 0)
(293.694 -3.23106 0)
(295.383 -3.19958 0)
(297.079 -3.17473 0)
(298.78 -3.13541 0)
(300.483 -3.10229 0)
(302.194 -3.05844 0)
(303.903 -3.01458 0)
(305.62 -2.96872 0)
(307.335 -2.91499 0)
(309.052 -2.86572 0)
(310.773 -2.8072 0)
(312.49 -2.75195 0)
(314.214 -2.69448 0)
(315.933 -2.63243 0)
(317.656 -2.57777 0)
(319.379 -2.51295 0)
(321.099 -2.45801 0)
(322.823 -2.3944 0)
(324.541 -2.33577 0)
(326.263 -2.27604 0)
(327.984 -2.21573 0)
(329.702 -2.15648 0)
(331.425 -2.09809 0)
(333.14 -2.03401 0)
(334.859 -1.98051 0)
(336.576 -1.91202 0)
(338.289 -1.85787 0)
(340.007 -1.78951 0)
(341.715 -1.72936 0)
(343.428 -1.66366 0)
(345.137 -1.59832 0)
(346.84 -1.52986 0)
(348.547 -1.4645 0)
(350.245 -1.3878 0)
(351.94 -1.3232 0)
(353.637 -1.24311 0)
(355.32 -1.17219 0)
(357.01 -1.09485 0)
(358.686 -1.01523 0)
(360.358 -0.939505 0)
(362.033 -0.859154 0)
(363.685 -0.777088 0)
(365.345 -0.702552 0)
(366.998 -0.613383 0)
(368.626 -0.536421 0)
(370.263 -0.453089 0)
(371.88 -0.367136 0)
(373.477 -0.289635 0)
(375.086 -0.199759 0)
(376.545 -0.124226 0)
(378.067 -0.0724644 0)
(190.721 -0.335995 0)
(190.846 -0.3541 0)
(190.916 -0.419368 0)
(191.006 -0.499976 0)
(191.1 -0.607862 0)
(191.225 -0.726474 0)
(191.379 -0.844074 0)
(191.572 -0.933156 0)
(191.795 -0.986545 0)
(192.047 -1.00257 0)
(192.325 -0.987289 0)
(192.625 -0.954744 0)
(192.949 -0.925266 0)
(193.297 -0.904919 0)
(193.672 -0.906779 0)
(194.075 -0.929119 0)
(194.508 -0.980516 0)
(194.976 -1.04595 0)
(195.475 -1.12017 0)
(196.005 -1.19296 0)
(196.56 -1.26909 0)
(197.138 -1.34276 0)
(197.734 -1.42421 0)
(198.347 -1.51558 0)
(198.973 -1.63055 0)
(199.615 -1.76187 0)
(200.271 -1.91899 0)
(200.947 -2.08789 0)
(201.642 -2.2679 0)
(202.36 -2.44377 0)
(203.1 -2.61247 0)
(203.864 -2.75737 0)
(204.646 -2.88743 0)
(205.451 -2.9839 0)
(206.271 -3.07049 0)
(207.111 -3.13109 0)
(207.964 -3.18869 0)
(208.837 -3.23515 0)
(209.726 -3.28203 0)
(210.636 -3.32416 0)
(211.567 -3.36953 0)
(212.52 -3.40366 0)
(213.497 -3.44359 0)
(214.498 -3.46084 0)
(215.522 -3.48569 0)
(216.569 -3.48241 0)
(217.636 -3.48924 0)
(218.723 -3.47188 0)
(219.826 -3.46969 0)
(220.947 -3.45301 0)
(222.081 -3.45767 0)
(223.232 -3.45655 0)
(224.395 -3.48081 0)
(225.576 -3.50211 0)
(226.77 -3.54903 0)
(227.982 -3.58918 0)
(229.209 -3.65139 0)
(230.455 -3.69943 0)
(231.716 -3.76532 0)
(232.995 -3.8084 0)
(234.288 -3.86641 0)
(235.598 -3.89573 0)
(236.919 -3.9406 0)
(238.257 -3.95485 0)
(239.604 -3.98753 0)
(240.966 -3.99108 0)
(242.337 -4.01648 0)
(243.722 -4.01611 0)
(245.115 -4.03962 0)
(246.524 -4.04092 0)
(247.941 -4.06464 0)
(249.374 -4.06967 0)
(250.817 -4.09207 0)
(252.277 -4.09966 0)
(253.747 -4.11611 0)
(255.234 -4.12263 0)
(256.73 -4.12865 0)
(258.243 -4.1305 0)
(259.765 -4.12256 0)
(261.302 -4.11732 0)
(262.847 -4.09494 0)
(264.404 -4.08212 0)
(265.97 -4.04838 0)
(267.544 -4.02959 0)
(269.128 -3.98995 0)
(270.718 -3.96693 0)
(272.318 -3.92783 0)
(273.921 -3.90256 0)
(275.535 -3.86995 0)
(277.151 -3.8426 0)
(278.779 -3.81967 0)
(280.409 -3.79068 0)
(282.049 -3.77569 0)
(283.694 -3.74584 0)
(285.346 -3.73491 0)
(287.007 -3.70561 0)
(288.67 -3.69159 0)
(290.346 -3.66397 0)
(292.021 -3.6414 0)
(293.709 -3.61474 0)
(295.397 -3.57961 0)
(297.094 -3.55164 0)
(298.795 -3.50668 0)
(300.498 -3.47044 0)
(302.21 -3.42027 0)
(303.919 -3.37237 0)
(305.636 -3.32071 0)
(307.351 -3.26104 0)
(309.07 -3.20683 0)
(310.792 -3.14076 0)
(312.51 -3.0805 0)
(314.236 -3.01542 0)
(315.956 -2.94698 0)
(317.682 -2.88585 0)
(319.405 -2.81309 0)
(321.127 -2.75243 0)
(322.853 -2.68057 0)
(324.573 -2.6155 0)
(326.298 -2.54867 0)
(328.02 -2.48042 0)
(329.739 -2.41486 0)
(331.464 -2.34831 0)
(333.179 -2.27744 0)
(334.901 -2.21705 0)
(336.618 -2.13977 0)
(338.331 -2.0797 0)
(340.051 -2.00212 0)
(341.758 -1.93514 0)
(343.472 -1.86146 0)
(345.18 -1.78749 0)
(346.883 -1.71163 0)
(348.591 -1.63756 0)
(350.288 -1.55198 0)
(351.985 -1.48009 0)
(353.681 -1.38973 0)
(355.363 -1.31146 0)
(357.055 -1.22444 0)
(358.728 -1.13546 0)
(360.4 -1.05165 0)
(362.078 -0.960876 0)
(363.727 -0.869629 0)
(365.391 -0.786105 0)
(367.044 -0.685976 0)
(368.67 -0.600847 0)
(370.313 -0.507566 0)
(371.93 -0.411238 0)
(373.524 -0.325584 0)
(375.145 -0.222922 0)
(376.589 -0.136026 0)
(378.107 -0.0789952 0)
(190.69 -0.360041 0)
(190.809 -0.38166 0)
(190.874 -0.450666 0)
(190.966 -0.537093 0)
(191.065 -0.653317 0)
(191.197 -0.781334 0)
(191.357 -0.909468 0)
(191.554 -1.00713 0)
(191.78 -1.06883 0)
(192.034 -1.09306 0)
(192.315 -1.08534 0)
(192.619 -1.0578 0)
(192.944 -1.03297 0)
(193.294 -1.0169 0)
(193.668 -1.02306 0)
(194.069 -1.05054 0)
(194.498 -1.10888 0)
(194.96 -1.18177 0)
(195.451 -1.26441 0)
(195.973 -1.34488 0)
(196.519 -1.42857 0)
(197.088 -1.5099 0)
(197.678 -1.5988 0)
(198.285 -1.69748 0)
(198.907 -1.82118 0)
(199.547 -1.96102 0)
(200.201 -2.12857 0)
(200.878 -2.30769 0)
(201.573 -2.49872 0)
(202.292 -2.68574 0)
(203.034 -2.86478 0)
(203.8 -3.01924 0)
(204.586 -3.15851 0)
(205.395 -3.26148 0)
(206.22 -3.35559 0)
(207.067 -3.42087 0)
(207.927 -3.48417 0)
(208.807 -3.53553 0)
(209.702 -3.58739 0)
(210.617 -3.63535 0)
(211.553 -3.68605 0)
(212.51 -3.72605 0)
(213.489 -3.77167 0)
(214.491 -3.79353 0)
(215.515 -3.82366 0)
(216.561 -3.82316 0)
(217.626 -3.83424 0)
(218.711 -3.81819 0)
(219.813 -3.81918 0)
(220.932 -3.80323 0)
(222.065 -3.81059 0)
(223.215 -3.81065 0)
(224.378 -3.83799 0)
(225.557 -3.86165 0)
(226.75 -3.91252 0)
(227.962 -3.95594 0)
(229.188 -4.02304 0)
(230.432 -4.07489 0)
(231.691 -4.1458 0)
(232.969 -4.19227 0)
(234.261 -4.25495 0)
(235.57 -4.28668 0)
(236.892 -4.33547 0)
(238.23 -4.35084 0)
(239.578 -4.38669 0)
(240.942 -4.39025 0)
(242.314 -4.41832 0)
(243.702 -4.4172 0)
(245.098 -4.44323 0)
(246.51 -4.44351 0)
(247.929 -4.46983 0)
(249.366 -4.47385 0)
(250.811 -4.4989 0)
(252.273 -4.50561 0)
(253.744 -4.52443 0)
(255.232 -4.53014 0)
(256.729 -4.53781 0)
(258.243 -4.53888 0)
(259.764 -4.53149 0)
(261.301 -4.52543 0)
(262.846 -4.50224 0)
(264.403 -4.48867 0)
(265.968 -4.4527 0)
(267.543 -4.43337 0)
(269.127 -4.39019 0)
(270.717 -4.36671 0)
(272.318 -4.3231 0)
(273.922 -4.29722 0)
(275.539 -4.26 0)
(277.155 -4.23149 0)
(278.786 -4.20475 0)
(280.416 -4.17353 0)
(282.059 -4.15603 0)
(283.705 -4.12244 0)
(285.358 -4.11034 0)
(287.02 -4.07613 0)
(288.684 -4.06144 0)
(290.361 -4.02863 0)
(292.036 -4.00469 0)
(293.725 -3.97359 0)
(295.413 -3.93521 0)
(297.111 -3.90399 0)
(298.811 -3.85363 0)
(300.515 -3.81481 0)
(302.227 -3.75826 0)
(303.935 -3.70704 0)
(305.654 -3.64955 0)
(307.369 -3.58459 0)
(309.09 -3.52579 0)
(310.812 -3.45243 0)
(312.531 -3.38799 0)
(314.259 -3.31544 0)
(315.979 -3.2416 0)
(317.708 -3.17432 0)
(319.433 -3.09417 0)
(321.157 -3.0284 0)
(322.885 -2.94848 0)
(324.605 -2.87776 0)
(326.333 -2.80424 0)
(328.056 -2.72846 0)
(329.778 -2.65727 0)
(331.504 -2.58251 0)
(333.219 -2.50556 0)
(334.944 -2.43843 0)
(336.66 -2.35297 0)
(338.375 -2.28757 0)
(340.095 -2.2009 0)
(341.802 -2.12776 0)
(343.518 -2.04644 0)
(345.226 -1.96415 0)
(346.928 -1.88163 0)
(348.638 -1.79901 0)
(350.332 -1.70537 0)
(352.031 -1.6267 0)
(353.727 -1.52647 0)
(355.407 -1.4417 0)
(357.102 -1.34529 0)
(358.773 -1.24768 0)
(360.446 -1.15664 0)
(362.125 -1.05576 0)
(363.77 -0.95624 0)
(365.439 -0.864315 0)
(367.091 -0.753857 0)
(368.715 -0.661441 0)
(370.364 -0.55876 0)
(371.977 -0.452348 0)
(373.57 -0.359247 0)
(375.2 -0.244541 0)
(376.625 -0.149056 0)
(378.143 -0.0884328 0)
(190.661 -0.38038 0)
(190.771 -0.404529 0)
(190.831 -0.477137 0)
(190.925 -0.569808 0)
(191.029 -0.693365 0)
(191.168 -0.829379 0)
(191.333 -0.966361 0)
(191.535 -1.07201 0)
(191.763 -1.14245 0)
(192.02 -1.17589 0)
(192.303 -1.17702 0)
(192.609 -1.15562 0)
(192.936 -1.13667 0)
(193.287 -1.12612 0)
(193.662 -1.13749 0)
(194.061 -1.17084 0)
(194.487 -1.23627 0)
(194.942 -1.31629 0)
(195.426 -1.40695 0)
(195.94 -1.49447 0)
(196.477 -1.58495 0)